72
Lattice="9.502739407299345 0.0 0.0 -4.751369703649672 8.229609895206416 0.0 0.0 0.0 47.64544301563952" Properties=species:S:1:pos:R:3:forces:R:3 energy=-121221.24093638493 pbc="T T T"
Cr      -1.59797217       2.76776899      23.24267413      -0.00297065       0.00514529      -0.00291435
Cr       3.19594435       0.00000000      23.24267413       0.00594131       0.00000000      -0.00291435
Cr       0.77770850       1.34703064      23.24266972      -0.00297142      -0.00514683      -0.00285881
Cr       1.60118342       2.77333103      21.10623093       0.87823613       1.52114948      -0.72273067
Cr      -0.77450144       1.34147584      21.10623093       0.87817545      -1.52104458      -0.72277567
Cr       1.54900288       0.00000000      21.10623093      -1.75635091      -0.00000000      -0.72277567
N        0.00000000       0.00000000      20.00000000       0.00000000       0.00000000       2.18452057
N        2.37568505       1.37160246      22.11335076      -0.00000771      -0.00000643      -0.01430073
N        0.00000005       2.74320483      22.11335076      -0.00000180      -0.00000977      -0.01430073
Cr      -1.64397519       2.84744855      27.49489242      -0.00200777       0.00347767      -0.01503890
Cr       3.28795038       0.00000000      27.49489242       0.00401581       0.00000000      -0.01503890
Cr       0.73173843       1.26740814      27.49490978      -0.00209134      -0.00362217      -0.01505587
Cr       1.59369654       2.76036338      25.42348977      -0.00211705      -0.00366691       0.00759427
Cr      -0.78198142       1.35443156      25.42349584      -0.00210959       0.00365405       0.00762461
Cr       1.56396285       0.00000000      25.42349584       0.00421944       0.00000000       0.00762461
N        0.00000000       0.00000000      24.32075261       0.00000000       0.00000000       0.00970566
N        2.37568853       1.37159855      26.54167072      -0.00001825       0.00000437       0.01679985
N       -0.00000507       2.74320589      26.54167072       0.00001286      -0.00001363       0.01679985
Cr      -3.97366121       6.88258311      23.24266972      -0.00297142       0.00514683      -0.00285881
Cr       0.82026092       4.11480554      23.24267746       0.00594542      -0.00000077      -0.00287629
Cr      -1.59797404       5.46184419      23.24267746      -0.00297348      -0.00514863      -0.00287629
Cr      -0.77450144       6.88813790      21.10623093       0.87826261       1.52103738      -0.72266948
Cr      -3.15018629       5.45628272      21.10623093       0.87823613      -1.52114948      -0.72273067
Cr      -0.82668198       4.11480687      21.10623093      -1.75638819       0.00007919      -0.72266948
N       -2.37568486       4.11480687      20.00000000      -0.00000206       0.00000386       2.18452366
N        0.00000000       5.48640916      22.11335217       0.00000000      -0.00000000      -0.01430870
N       -2.37568466       6.85801128      22.11335076      -0.00000771       0.00000643      -0.01430073
Cr      -4.01963128       6.96220561      27.49490978      -0.00209134       0.00362217      -0.01505587
Cr       0.91223276       4.11480109      27.49491356       0.00412662       0.00000206      -0.01515665
Cr      -1.64396382       5.38219645      27.49491356      -0.00206151      -0.00357460      -0.01515665
Cr      -0.78197883       6.87517507      25.42349011      -0.00212245      -0.00363605       0.00763309
Cr      -3.15767317       5.46925037      25.42348977      -0.00211705       0.00366691       0.00759427
Cr      -0.81171714       4.11481268      25.42349011       0.00421018      -0.00002005       0.00763309
N       -2.37568536       4.11480775      24.32075209       0.00000000      -0.00000026       0.00972237
N        0.00000000       5.48640916      26.54167997       0.00000000       0.00000000       0.01677028
N       -2.37568119       6.85801520      26.54167072      -0.00001825      -0.00000437       0.01679985
Cr       3.15339567       2.76776956      23.24267746      -0.00297348       0.00514863      -0.00287629
Cr       7.94732242       0.00000000      23.24266972       0.00594285       0.00000000      -0.00285881
Cr       5.52908284       1.34703598      23.24267746      -0.00297194      -0.00514941      -0.00287629
Cr       6.35255313       2.77333103      21.10623093       0.87812557       1.52111657      -0.72266948
Cr       3.97686827       1.34147584      21.10623093       0.87826261      -1.52103738      -0.72266948
Cr       6.30037259       0.00000000      21.10623093      -1.75647201      -0.00000000      -0.72273067
N        4.75136971       0.00000000      20.00000000       0.00000437       0.00000000       2.18452366
N        7.12705432       1.37160237      22.11335076       0.00000951      -0.00000334      -0.01430073
N        4.75136971       2.74320458      22.11335217       0.00000000       0.00000000      -0.01430870
Cr       3.10740590       2.84741729      27.49491356      -0.00206151       0.00357460      -0.01515665
Cr       8.03926256       0.00000000      27.49490978       0.00418241       0.00000000      -0.01505587
Cr       5.48310076       1.26738380      27.49491356      -0.00206511      -0.00357255      -0.01515665
Cr       6.34506568       2.76037400      25.42349011      -0.00208774      -0.00365611       0.00763309
Cr       3.96939088       1.35443868      25.42349011      -0.00212245       0.00363605       0.00763309
Cr       6.31534634       0.00000000      25.42348977       0.00423435       0.00000000       0.00759427
N        4.75137072       0.00000000      24.32075209      -0.00000026      -0.00000000       0.00972237
N        7.12705597       1.37160734      26.54167072       0.00000540      -0.00001800       0.01679985
N        4.75136971       2.74320458      26.54167997       0.00000000       0.00000000       0.01677028
Cr       0.77771312       6.88257777      23.24267746      -0.00297194       0.00514941      -0.00287629
Cr       5.57163063       4.11480820      23.24267746       0.00594542       0.00000077      -0.00287629
Cr       3.15339754       5.46184475      23.24267413      -0.00297065      -0.00514529      -0.00291435
Cr       3.97686827       6.88813790      21.10623093       0.87817545       1.52104458      -0.72277567
Cr       1.60118342       5.45628272      21.10623093       0.87812557      -1.52111657      -0.72266948
Cr       3.92468773       4.11480687      21.10623093      -1.75638819      -0.00007919      -0.72266948
N        2.37568486       4.11480687      20.00000000      -0.00000206      -0.00000386       2.18452366
N        4.75136976       5.48640891      22.11335076      -0.00000180       0.00000977      -0.01430073
N        2.37568461       6.85801138      22.11335076       0.00000951       0.00000334      -0.01430073
Cr       0.73173105       6.96222995      27.49491356      -0.00206511       0.00357255      -0.01515665
Cr       5.66360248       4.11481265      27.49491356       0.00412662      -0.00000206      -0.01515665
Cr       3.10739452       5.38216519      27.49489242      -0.00200777      -0.00347767      -0.01503890
Cr       3.96938829       6.87518219      25.42349584      -0.00210959      -0.00365405       0.00762461
Cr       1.59369597       5.46923975      25.42349011      -0.00208774       0.00365611       0.00763309
Cr       3.93965258       4.11480106      25.42349011       0.00421018       0.00002005       0.00763309
N        2.37568435       4.11480600      24.32075209       0.00000000       0.00000026       0.00972237
N        4.75136464       5.48640786      26.54167072       0.00001286       0.00001363       0.01679985
N        2.37568626       6.85800641      26.54167072       0.00000540       0.00001800       0.01679985
