
     Program PWSCF v.7.5 starts on  2Jun2026 at 16:43:10 

     This program is part of the open-source Quantum ESPRESSO suite
     for quantum simulation of materials; please cite
         "P. Giannozzi et al., J. Phys.:Condens. Matter 21 395502 (2009);
         "P. Giannozzi et al., J. Phys.:Condens. Matter 29 465901 (2017);
         "P. Giannozzi et al., J. Chem. Phys. 152 154105 (2020);
          URL http://www.quantum-espresso.org", 
     in publications or presentations arising from this work. More details at
     http://www.quantum-espresso.org/quote

     Parallel version (MPI & OpenMP), running on      64 processor cores
     Number of MPI processes:                64
     Threads/MPI process:                     1

     MPI processes distributed on     1 nodes
     258955 MiB available memory on the printing compute node when the environment starts
 
     Reading input from generated_inputs/adsorcion/pw-CH4-H13_Rot60_bridge_.in
Warning: card &CELL ignored

     Current dimensions of program PWSCF are:
     Max number of different atomic species (ntypx) = 10
     Max number of k-points (npk) =  40000
     Max angular momentum in pseudopotentials (lmaxx) =  4
     file Cr.pbe-spn-kjpaw_psl.1.0.0.UPF: wavefunction(s)  3S 3P 3D renormalized
     file N.pbe-n-kjpaw_psl.1.0.0.UPF: wavefunction(s)  2S renormalized
     file C.pbe-n-kjpaw_psl.1.0.0.UPF: wavefunction(s)  2S 2P renormalized
     file H.pbe-kjpaw_psl.1.0.0.UPF: wavefunction(s)  1S renormalized
 
     K-points division:     npool     =       4
     R & G space division:  proc/nbgrp/npool/nimage =      16
     Subspace diagonalization in iterative solution of the eigenvalue problem:
     one sub-group per band group will be used
     scalapack distributed-memory algorithm (size of sub-group:  4*  4 procs)

 
     Parallelization info
     --------------------
     sticks:   dense  smooth     PW     G-vecs:    dense   smooth      PW
     Min        1166     388    102               281408    54158    7274
     Max        1167     389    103               281417    54165    7281
     Sum       18661    6217   1639              4502593   866593  116429
 
     Using Slab Decomposition
 


     bravais-lattice index     =            0
     lattice parameter (alat)  =      17.9576  a.u.
     unit-cell volume          =   10952.5767 (a.u.)^3
     number of atoms/cell      =           77
     number of atomic types    =            4
     number of electrons       =       800.00
     number of Kohn-Sham states=          480
     kinetic-energy cutoff     =      70.0000  Ry
     charge density cutoff     =     840.0000  Ry
     scf convergence threshold =      1.0E-08
     mixing beta               =       0.2000
     number of iterations used =            8  plain     mixing
     energy convergence thresh.=      1.0E-04
     force convergence thresh. =      1.0E-03
     Exchange-correlation= SLA  PW   PBX  PBC
                           (   1   4   3   4   0   0   0)
     nstep                     =          200


     celldm(1)=  17.957575  celldm(2)=   0.000000  celldm(3)=   0.000000
     celldm(4)=   0.000000  celldm(5)=   0.000000  celldm(6)=   0.000000

     crystal axes: (cart. coord. in units of alat)
               a(1) = (   1.000000   0.000000   0.000000 )  
               a(2) = (  -0.500000   0.866025   0.000000 )  
               a(3) = (   0.000000   0.000000   2.183951 )  

     reciprocal axes: (cart. coord. in units 2 pi/alat)
               b(1) = (  1.000000  0.577351  0.000000 )  
               b(2) = (  0.000000  1.154701  0.000000 )  
               b(3) = (  0.000000  0.000000  0.457886 )  


     PseudoPot. # 1 for Cr read from file:
     pseudo/Cr.pbe-spn-kjpaw_psl.1.0.0.UPF
     MD5 check sum: 198f1a2427a48552563eee314eba32ba
     Pseudo is Projector augmented-wave + core cor, Zval = 14.0
     Generated using &quot;atomic&quot; code by A. Dal Corso  v.6.3
     Shape of augmentation charge: PSQ
     Using radial grid of 1183 points,  6 beta functions with: 
                l(1) =   0
                l(2) =   0
                l(3) =   1
                l(4) =   1
                l(5) =   2
                l(6) =   2
     Q(r) pseudized with 0 coefficients 


     PseudoPot. # 2 for N  read from file:
     pseudo/N.pbe-n-kjpaw_psl.1.0.0.UPF
     MD5 check sum: 14c48229446f9f2d411169a3abcbc3fa
     Pseudo is Projector augmented-wave + core cor, Zval =  5.0
     Generated using &quot;atomic&quot; code by A. Dal Corso  v.6.3
     Shape of augmentation charge: PSQ
     Using radial grid of 1085 points,  4 beta functions with: 
                l(1) =   0
                l(2) =   0
                l(3) =   1
                l(4) =   1
     Q(r) pseudized with 0 coefficients 


     PseudoPot. # 3 for C  read from file:
     pseudo/C.pbe-n-kjpaw_psl.1.0.0.UPF
     MD5 check sum: 5f16ad9a65e90284d1d834d4ab3b0f7d
     Pseudo is Projector augmented-wave + core cor, Zval =  4.0
     Generated using &quot;atomic&quot; code by A. Dal Corso  v.6.3
     Shape of augmentation charge: PSQ
     Using radial grid of 1073 points,  4 beta functions with: 
                l(1) =   0
                l(2) =   0
                l(3) =   1
                l(4) =   1
     Q(r) pseudized with 0 coefficients 


     PseudoPot. # 4 for H  read from file:
     pseudo/H.pbe-kjpaw_psl.1.0.0.UPF
     MD5 check sum: d81a744832360e4a8af0b0b5b123bc2a
     Pseudo is Projector augmented-wave, Zval =  1.0
     Generated using &quot;atomic&quot; code by A. Dal Corso  v.6.3MaX
     Shape of augmentation charge: PSQ
     Using radial grid of  929 points,  2 beta functions with: 
                l(1) =   0
                l(2) =   0
     Q(r) pseudized with 0 coefficients 


     atomic species   valence    mass     pseudopotential
     Cr               14.00    51.99610     Cr( 1.00)
     N                 5.00    14.00670     N ( 1.00)
     C                 4.00    12.01100     C ( 1.00)
     H                 1.00     1.00800     H ( 1.00)

     No symmetry found



   Cartesian axes

     site n.     atom                  positions (alat units)
         1        Cr     tau(   1) = (  -0.1681591   0.2912601   0.8673998  )
         2        Cr     tau(   2) = (   0.3363182   0.0000000   0.8673998  )
         3        Cr     tau(   3) = (   0.0818405   0.1417518   0.8673993  )
         4        Cr     tau(   4) = (   0.1684970   0.2918454   0.6425759  )
         5        Cr     tau(   5) = (  -0.0815030   0.1411673   0.6425759  )
         6        Cr     tau(   6) = (   0.1630059   0.0000000   0.6425759  )
         7        N      tau(   7) = (   0.0000000   0.0000000   0.5261641  )
         8        N      tau(   8) = (   0.2500000   0.1443376   0.7485579  )
         9        N      tau(   9) = (   0.0000000   0.2886752   0.7485579  )
        10        Cr     tau(  10) = (  -0.1730001   0.2996450   1.3148727  )
        11        Cr     tau(  11) = (   0.3460003   0.0000000   1.3148727  )
        12        Cr     tau(  12) = (   0.0770029   0.1333729   1.3148745  )
        13        Cr     tau(  13) = (   0.1677092   0.2904808   1.0968932  )
        14        Cr     tau(  14) = (  -0.0822901   0.1425306   1.0968938  )
        15        Cr     tau(  15) = (   0.1645802   0.0000000   1.0968938  )
        16        N      tau(  16) = (   0.0000000   0.0000000   0.9808490  )
        17        N      tau(  17) = (   0.2500004   0.1443372   1.2145625  )
        18        N      tau(  18) = (  -0.0000005   0.2886753   1.2145625  )
        19        Cr     tau(  19) = (  -0.4181595   0.7242736   0.8673993  )
        20        Cr     tau(  20) = (   0.0863184   0.4330126   0.8674001  )
        21        Cr     tau(  21) = (  -0.1681593   0.5747652   0.8674001  )
        22        Cr     tau(  22) = (  -0.0815030   0.7248581   0.6425759  )
        23        Cr     tau(  23) = (  -0.3315030   0.5741800   0.6425759  )
        24        Cr     tau(  24) = (  -0.0869941   0.4330127   0.6425759  )
        25        N      tau(  25) = (  -0.2500000   0.4330127   0.5261641  )
        26        N      tau(  26) = (   0.0000000   0.5773503   0.7485581  )
        27        N      tau(  27) = (  -0.2500000   0.7216878   0.7485579  )
        28        Cr     tau(  28) = (  -0.4229971   0.7326525   1.3148745  )
        29        Cr     tau(  29) = (   0.0959968   0.4330121   1.3148749  )
        30        Cr     tau(  30) = (  -0.1729989   0.5663837   1.3148749  )
        31        Cr     tau(  31) = (  -0.0822898   0.7234940   1.0968932  )
        32        Cr     tau(  32) = (  -0.3322908   0.5755446   1.0968932  )
        33        Cr     tau(  33) = (  -0.0854193   0.4330133   1.0968932  )
        34        N      tau(  34) = (  -0.2500001   0.4330128   0.9808490  )
        35        N      tau(  35) = (   0.0000000   0.5773503   1.2145635  )
        36        N      tau(  36) = (  -0.2499996   0.7216882   1.2145625  )
        37        Cr     tau(  37) = (   0.3318407   0.2912602   0.8674001  )
        38        Cr     tau(  38) = (   0.8363191   0.0000000   0.8673993  )
        39        Cr     tau(  39) = (   0.5818409   0.1417524   0.8674001  )
        40        Cr     tau(  40) = (   0.6684970   0.2918454   0.6425759  )
        41        Cr     tau(  41) = (   0.4184970   0.1411673   0.6425759  )
        42        Cr     tau(  42) = (   0.6630059   0.0000000   0.6425759  )
        43        N      tau(  43) = (   0.5000000   0.0000000   0.5261641  )
        44        N      tau(  44) = (   0.7500000   0.1443376   0.7485579  )
        45        N      tau(  45) = (   0.5000000   0.2886751   0.7485581  )
        46        Cr     tau(  46) = (   0.3270011   0.2996417   1.3148749  )
        47        Cr     tau(  47) = (   0.8459942   0.0000000   1.3148745  )
        48        Cr     tau(  48) = (   0.5770021   0.1333704   1.3148749  )
        49        Cr     tau(  49) = (   0.6677091   0.2904819   1.0968932  )
        50        Cr     tau(  50) = (   0.4177102   0.1425314   1.0968932  )
        51        Cr     tau(  51) = (   0.6645817   0.0000000   1.0968932  )
        52        N      tau(  52) = (   0.5000001   0.0000000   0.9808490  )
        53        N      tau(  53) = (   0.7500001   0.1443381   1.2145625  )
        54        N      tau(  54) = (   0.5000000   0.2886751   1.2145635  )
        55        Cr     tau(  55) = (   0.0818409   0.7242730   0.8674001  )
        56        Cr     tau(  56) = (   0.5863184   0.4330128   0.8674001  )
        57        Cr     tau(  57) = (   0.3318409   0.5747653   0.8673998  )
        58        Cr     tau(  58) = (   0.4184970   0.7248581   0.6425759  )
        59        Cr     tau(  59) = (   0.1684970   0.5741800   0.6425759  )
        60        Cr     tau(  60) = (   0.4130059   0.4330127   0.6425759  )
        61        N      tau(  61) = (   0.2500000   0.4330127   0.5261641  )
        62        N      tau(  62) = (   0.5000000   0.5773502   0.7485579  )
        63        N      tau(  63) = (   0.2500000   0.7216878   0.7485579  )
        64        Cr     tau(  64) = (   0.0770021   0.7326550   1.3148749  )
        65        Cr     tau(  65) = (   0.5959968   0.4330133   1.3148749  )
        66        Cr     tau(  66) = (   0.3269999   0.5663804   1.3148727  )
        67        Cr     tau(  67) = (   0.4177099   0.7234948   1.0968938  )
        68        Cr     tau(  68) = (   0.1677091   0.5755435   1.0968932  )
        69        Cr     tau(  69) = (   0.4145807   0.4330121   1.0968932  )
        70        N      tau(  70) = (   0.2499999   0.4330126   0.9808490  )
        71        N      tau(  71) = (   0.4999995   0.5773501   1.2145625  )
        72        N      tau(  72) = (   0.2500001   0.7216873   1.2145625  )
        73        C      tau(  73) = (   0.2114989   0.3663269   1.6400443  )
        74        H      tau(  74) = (   0.2115152   0.3663175   1.5253427  )
        75        H      tau(  75) = (   0.3051470   0.3122592   1.6782959  )
        76        H      tau(  76) = (   0.2114935   0.4744718   1.6782693  )
        77        H      tau(  77) = (   0.1178400   0.3122592   1.6782693  )

     --------------------------------------------
     DFT-D3 Dispersion Correction (3-body terms):
     --------------------------------------------
       Reference C6 values for interpolation: 

         atom   Coordination number   C6
         H          0.912             6.05
         H          0.000            15.18
         C          0.000            98.23
         C          0.987            86.49
         C          1.998            58.72
         C          2.999            51.56
         C          3.984            36.41
         N          0.000            50.54
         N          0.994            44.25
         N          2.014            39.35
         N          2.990            31.16
         Cr         0.000          1381.48
         Cr         1.827           571.38
         Cr        10.619           306.69

       Values used:

         atom   Coordination number  R0_AB[au]  C6      C8
         Cr        12.627            3.252    306.69  28303.74
         Cr        12.627            3.252    306.69  28303.74
         Cr        12.627            3.252    306.69  28303.74
         Cr        10.143            3.252    306.69  28303.74
         Cr        10.143            3.252    306.69  28303.74
         Cr        10.143            3.252    306.69  28303.74
         N          3.022            2.478     31.29    690.36
         N          6.023            2.478     31.16    687.49
         N          6.023            2.478     31.16    687.49
         Cr         9.071            3.252    306.69  28303.74
         Cr         9.071            3.252    306.69  28303.74
         Cr         9.074            3.252    306.69  28303.74
         Cr        12.748            3.252    306.69  28303.74
         Cr        12.748            3.252    306.69  28303.74
         Cr        12.748            3.252    306.69  28303.74
         N          6.047            2.478     31.16    687.49
         N          6.032            2.478     31.16    687.49
         N          6.032            2.478     31.16    687.49
         Cr        12.627            3.252    306.69  28303.74
         Cr        12.627            3.252    306.69  28303.74
         Cr        12.627            3.252    306.69  28303.74
         Cr        10.143            3.252    306.69  28303.74
         Cr        10.143            3.252    306.69  28303.74
         Cr        10.143            3.252    306.69  28303.74
         N          3.022            2.478     31.29    690.36
         N          6.023            2.478     31.16    687.49
         N          6.023            2.478     31.16    687.49
         Cr         9.071            3.252    306.69  28303.74
         Cr         9.125            3.252    306.69  28303.74
         Cr         9.071            3.252    306.69  28303.74
         Cr        12.748            3.252    306.69  28303.74
         Cr        12.748            3.252    306.69  28303.74
         Cr        12.748            3.252    306.69  28303.74
         N          6.047            2.478     31.16    687.49
         N          6.032            2.478     31.16    687.49
         N          6.032            2.478     31.16    687.49
         Cr        12.627            3.252    306.69  28303.74
         Cr        12.627            3.252    306.69  28303.74
         Cr        12.627            3.252    306.69  28303.74
         Cr        10.143            3.252    306.69  28303.74
         Cr        10.143            3.252    306.69  28303.74
         Cr        10.143            3.252    306.69  28303.74
         N          3.022            2.478     31.29    690.36
         N          6.023            2.478     31.16    687.49
         N          6.023            2.478     31.16    687.49
         Cr         9.126            3.252    306.69  28303.74
         Cr         9.071            3.252    306.69  28303.74
         Cr         9.071            3.252    306.69  28303.74
         Cr        12.748            3.252    306.69  28303.74
         Cr        12.748            3.252    306.69  28303.74
         Cr        12.748            3.252    306.69  28303.74
         N          6.047            2.478     31.16    687.49
         N          6.032            2.478     31.16    687.49
         N          6.032            2.478     31.16    687.49
         Cr        12.627            3.252    306.69  28303.74
         Cr        12.627            3.252    306.69  28303.74
         Cr        12.627            3.252    306.69  28303.74
         Cr        10.143            3.252    306.69  28303.74
         Cr        10.143            3.252    306.69  28303.74
         Cr        10.143            3.252    306.69  28303.74
         N          3.022            2.478     31.29    690.36
         N          6.023            2.478     31.16    687.49
         N          6.023            2.478     31.16    687.49
         Cr         9.071            3.252    306.69  28303.74
         Cr         9.071            3.252    306.69  28303.74
         Cr         9.078            3.252    306.69  28303.74
         Cr        12.748            3.252    306.69  28303.74
         Cr        12.748            3.252    306.69  28303.74
         Cr        12.748            3.252    306.69  28303.74
         N          6.047            2.478     31.16    687.49
         N          6.032            2.478     31.16    687.49
         N          6.032            2.478     31.16    687.49
         C          4.015            2.750     36.63   1059.27
         H          1.079            2.062      6.13     74.05
         H          0.997            2.062      6.18     74.75
         H          0.997            2.062      6.18     74.75
         H          0.997            2.062      6.18     74.76

         Molecular C6 ( Ry / a.u.^6 ) =    974492.70


     number of k points=    10  Methfessel-Paxton smearing, width (Ry)=  0.0200
                       cart. coord. in units 2pi/alat
        k(    1) = (   0.0000000   0.0000000   0.0000000), wk =   0.1250000
        k(    2) = (   0.0000000   0.2886753   0.0000000), wk =   0.2500000
        k(    3) = (   0.0000000  -0.5773505   0.0000000), wk =   0.1250000
        k(    4) = (   0.2500000   0.4330129   0.0000000), wk =   0.2500000
        k(    5) = (  -0.2500000   0.1443376   0.0000000), wk =   0.2500000
        k(    6) = (   0.2500000   0.1443376   0.0000000), wk =   0.2500000
        k(    7) = (   0.5000000  -0.2886753   0.0000000), wk =   0.1250000
        k(    8) = (  -0.5000000  -0.2886753   0.0000000), wk =   0.1250000
        k(    9) = (  -0.2500000   0.4330129   0.0000000), wk =   0.2500000
        k(   10) = (   0.5000000  -0.0000000   0.0000000), wk =   0.2500000

     Dense  grid:  4502593 G-vectors     FFT dimensions: ( 180, 180, 375)

     Smooth grid:   866593 G-vectors     FFT dimensions: (  96,  96, 216)

     Estimated max dynamical RAM per process >     867.27 MB

     Estimated total dynamical RAM >      50.98 GB

     Initial potential from superposition of free atoms

     starting charge     799.9627, renormalised to     800.0000

     negative rho (up, down):  3.319E-04 0.000E+00
     Starting wfcs are  584 randomized atomic wfcs
     Checking if some PAW data can be deallocated... 

     total cpu time spent up to now is       19.7 secs

     Self-consistent Calculation

     iteration #  1     ecut=    70.00 Ry     beta= 0.20
     Davidson diagonalization with overlap
     ethr =  1.00E-02,  avg # of iterations =  2.7

     negative rho (up, down):  1.308E-04 0.000E+00

     total cpu time spent up to now is       66.0 secs

     total energy              =  -12610.57882448 Ry
     estimated scf accuracy    <      29.46432464 Ry

     iteration #  2     ecut=    70.00 Ry     beta= 0.20
     Davidson diagonalization with overlap
     ethr =  3.68E-03,  avg # of iterations =  6.3

     negative rho (up, down):  4.038E-04 0.000E+00

     total cpu time spent up to now is      121.5 secs

     total energy              =  -12600.02651666 Ry
     estimated scf accuracy    <     687.17578352 Ry

     iteration #  3     ecut=    70.00 Ry     beta= 0.20
     Davidson diagonalization with overlap
     ethr =  3.68E-03,  avg # of iterations =  3.2

     negative rho (up, down):  5.934E-04 0.000E+00

     total cpu time spent up to now is      163.9 secs

     total energy              =  -12608.73436735 Ry
     estimated scf accuracy    <     499.38270979 Ry

     iteration #  4     ecut=    70.00 Ry     beta= 0.20
     Davidson diagonalization with overlap
     ethr =  3.68E-03,  avg # of iterations =  1.9

     negative rho (up, down):  2.696E-04 0.000E+00

     total cpu time spent up to now is      204.3 secs

     total energy              =  -12615.00082058 Ry
     estimated scf accuracy    <      82.26038916 Ry

     iteration #  5     ecut=    70.00 Ry     beta= 0.20
     Davidson diagonalization with overlap
     ethr =  3.68E-03,  avg # of iterations =  1.3

     negative rho (up, down):  3.473E-04 0.000E+00

     total cpu time spent up to now is      242.2 secs

     total energy              =  -12615.77250313 Ry
     estimated scf accuracy    <       9.06665467 Ry

     iteration #  6     ecut=    70.00 Ry     beta= 0.20
     Davidson diagonalization with overlap
     ethr =  1.13E-03,  avg # of iterations =  2.8

     negative rho (up, down):  4.075E-04 0.000E+00

     total cpu time spent up to now is      283.8 secs

     total energy              =  -12616.19794783 Ry
     estimated scf accuracy    <       3.70961382 Ry

     iteration #  7     ecut=    70.00 Ry     beta= 0.20
     Davidson diagonalization with overlap
     ethr =  4.64E-04,  avg # of iterations = 12.9

     negative rho (up, down):  4.150E-04 0.000E+00

     total cpu time spent up to now is      334.2 secs

     total energy              =  -12616.34479598 Ry
     estimated scf accuracy    <       2.07684127 Ry

     iteration #  8     ecut=    70.00 Ry     beta= 0.20
     Davidson diagonalization with overlap
     ethr =  2.60E-04,  avg # of iterations =  2.4

     negative rho (up, down):  4.313E-04 0.000E+00

     total cpu time spent up to now is      375.0 secs

     total energy              =  -12616.37128849 Ry
     estimated scf accuracy    <       0.83649800 Ry

     iteration #  9     ecut=    70.00 Ry     beta= 0.20
     Davidson diagonalization with overlap
     ethr =  1.05E-04,  avg # of iterations =  7.4

     negative rho (up, down):  3.475E-04 0.000E+00

     total cpu time spent up to now is      422.2 secs

     total energy              =  -12616.36920150 Ry
     estimated scf accuracy    <       0.70597444 Ry

     iteration # 10     ecut=    70.00 Ry     beta= 0.20
     Davidson diagonalization with overlap
     ethr =  8.82E-05,  avg # of iterations =  3.7

     negative rho (up, down):  3.311E-04 0.000E+00

     total cpu time spent up to now is      464.4 secs

     total energy              =  -12616.36774261 Ry
     estimated scf accuracy    <       0.54165118 Ry

     iteration # 11     ecut=    70.00 Ry     beta= 0.20
     Davidson diagonalization with overlap
     ethr =  6.77E-05,  avg # of iterations =  8.2

     negative rho (up, down):  3.466E-04 0.000E+00

     total cpu time spent up to now is      520.0 secs

     total energy              =  -12616.38171393 Ry
     estimated scf accuracy    <       0.26622687 Ry

     iteration # 12     ecut=    70.00 Ry     beta= 0.20
     Davidson diagonalization with overlap
     c_bands:  3 eigenvalues not converged
     ethr =  3.33E-05,  avg # of iterations = 11.7

     negative rho (up, down):  2.501E-04 0.000E+00

     total cpu time spent up to now is      573.0 secs

     total energy              =  -12616.37700857 Ry
     estimated scf accuracy    <       0.50256780 Ry

     iteration # 13     ecut=    70.00 Ry     beta= 0.20
     Davidson diagonalization with overlap
     ethr =  3.33E-05,  avg # of iterations =  1.1

     negative rho (up, down):  2.177E-04 0.000E+00

     total cpu time spent up to now is      610.0 secs

     total energy              =  -12616.38440402 Ry
     estimated scf accuracy    <       0.11940264 Ry

     iteration # 14     ecut=    70.00 Ry     beta= 0.20
     Davidson diagonalization with overlap
     ethr =  1.49E-05,  avg # of iterations =  5.1

     negative rho (up, down):  1.909E-04 0.000E+00

     total cpu time spent up to now is      655.1 secs

     total energy              =  -12616.38550722 Ry
     estimated scf accuracy    <       0.07533909 Ry

     iteration # 15     ecut=    70.00 Ry     beta= 0.20
     Davidson diagonalization with overlap
     ethr =  9.42E-06,  avg # of iterations =  5.7

     negative rho (up, down):  1.795E-04 0.000E+00

     total cpu time spent up to now is      698.6 secs

     total energy              =  -12616.38512946 Ry
     estimated scf accuracy    <       0.19290782 Ry

     iteration # 16     ecut=    70.00 Ry     beta= 0.20
     Davidson diagonalization with overlap
     ethr =  9.42E-06,  avg # of iterations =  1.6

     negative rho (up, down):  1.814E-04 0.000E+00

     total cpu time spent up to now is      738.4 secs

     total energy              =  -12616.38709971 Ry
     estimated scf accuracy    <       0.03384630 Ry

     iteration # 17     ecut=    70.00 Ry     beta= 0.20
     Davidson diagonalization with overlap
     ethr =  4.23E-06,  avg # of iterations =  5.6

     negative rho (up, down):  1.826E-04 0.000E+00

     total cpu time spent up to now is      783.6 secs

     total energy              =  -12616.38665167 Ry
     estimated scf accuracy    <       0.06791574 Ry

     iteration # 18     ecut=    70.00 Ry     beta= 0.20
     Davidson diagonalization with overlap
     ethr =  4.23E-06,  avg # of iterations =  1.6

     negative rho (up, down):  1.852E-04 0.000E+00

     total cpu time spent up to now is      823.1 secs

     total energy              =  -12616.38760468 Ry
     estimated scf accuracy    <       0.05203789 Ry

     iteration # 19     ecut=    70.00 Ry     beta= 0.20
     Davidson diagonalization with overlap
     ethr =  4.23E-06,  avg # of iterations =  1.0

     negative rho (up, down):  1.873E-04 0.000E+00

     total cpu time spent up to now is      858.9 secs

     total energy              =  -12616.38873209 Ry
     estimated scf accuracy    <       0.00685708 Ry

     iteration # 20     ecut=    70.00 Ry     beta= 0.20
     Davidson diagonalization with overlap
     ethr =  8.57E-07,  avg # of iterations =  6.3

     negative rho (up, down):  1.896E-04 0.000E+00

     total cpu time spent up to now is      905.3 secs

     total energy              =  -12616.38887600 Ry
     estimated scf accuracy    <       0.00440284 Ry

     iteration # 21     ecut=    70.00 Ry     beta= 0.20
     Davidson diagonalization with overlap
     ethr =  5.50E-07,  avg # of iterations =  1.9

     negative rho (up, down):  1.936E-04 0.000E+00

     total cpu time spent up to now is      945.4 secs

     total energy              =  -12616.38902074 Ry
     estimated scf accuracy    <       0.00385418 Ry

     iteration # 22     ecut=    70.00 Ry     beta= 0.20
     Davidson diagonalization with overlap
     ethr =  4.82E-07,  avg # of iterations =  1.7

     negative rho (up, down):  1.977E-04 0.000E+00

     total cpu time spent up to now is      985.2 secs

     total energy              =  -12616.38910296 Ry
     estimated scf accuracy    <       0.00415009 Ry

     iteration # 23     ecut=    70.00 Ry     beta= 0.20
     Davidson diagonalization with overlap
     ethr =  4.82E-07,  avg # of iterations =  1.1

     negative rho (up, down):  2.006E-04 0.000E+00

     total cpu time spent up to now is     1021.9 secs

     total energy              =  -12616.38922057 Ry
     estimated scf accuracy    <       0.00136538 Ry

     iteration # 24     ecut=    70.00 Ry     beta= 0.20
     Davidson diagonalization with overlap
     ethr =  1.71E-07,  avg # of iterations =  1.8

     negative rho (up, down):  2.005E-04 0.000E+00

     total cpu time spent up to now is     1061.9 secs

     total energy              =  -12616.38926411 Ry
     estimated scf accuracy    <       0.00071538 Ry

     iteration # 25     ecut=    70.00 Ry     beta= 0.20
     Davidson diagonalization with overlap
     ethr =  8.94E-08,  avg # of iterations =  2.3

     negative rho (up, down):  2.010E-04 0.000E+00

     total cpu time spent up to now is     1102.7 secs

     total energy              =  -12616.38927738 Ry
     estimated scf accuracy    <       0.00070164 Ry

     iteration # 26     ecut=    70.00 Ry     beta= 0.20
     Davidson diagonalization with overlap
     ethr =  8.77E-08,  avg # of iterations =  1.4

     negative rho (up, down):  2.017E-04 0.000E+00

     total cpu time spent up to now is     1141.9 secs

     total energy              =  -12616.38928914 Ry
     estimated scf accuracy    <       0.00064634 Ry

     iteration # 27     ecut=    70.00 Ry     beta= 0.20
     Davidson diagonalization with overlap
     ethr =  8.08E-08,  avg # of iterations =  1.4

     negative rho (up, down):  2.008E-04 0.000E+00

     total cpu time spent up to now is     1181.4 secs

     total energy              =  -12616.38930123 Ry
     estimated scf accuracy    <       0.00020930 Ry

     iteration # 28     ecut=    70.00 Ry     beta= 0.20
     Davidson diagonalization with overlap
     ethr =  2.62E-08,  avg # of iterations =  3.4

     negative rho (up, down):  2.014E-04 0.000E+00

     total cpu time spent up to now is     1223.7 secs

     total energy              =  -12616.38929824 Ry
     estimated scf accuracy    <       0.00048181 Ry

     iteration # 29     ecut=    70.00 Ry     beta= 0.20
     Davidson diagonalization with overlap
     ethr =  2.62E-08,  avg # of iterations =  1.2

     negative rho (up, down):  2.016E-04 0.000E+00

     total cpu time spent up to now is     1261.6 secs

     total energy              =  -12616.38930944 Ry
     estimated scf accuracy    <       0.00010586 Ry

     iteration # 30     ecut=    70.00 Ry     beta= 0.20
     Davidson diagonalization with overlap
     ethr =  1.32E-08,  avg # of iterations =  3.1

     negative rho (up, down):  2.016E-04 0.000E+00

     total cpu time spent up to now is     1303.7 secs

     total energy              =  -12616.38931157 Ry
     estimated scf accuracy    <       0.00006482 Ry

     iteration # 31     ecut=    70.00 Ry     beta= 0.20
     Davidson diagonalization with overlap
     ethr =  8.10E-09,  avg # of iterations =  2.6

     negative rho (up, down):  2.011E-04 0.000E+00

     total cpu time spent up to now is     1344.6 secs

     total energy              =  -12616.38931147 Ry
     estimated scf accuracy    <       0.00006613 Ry

     iteration # 32     ecut=    70.00 Ry     beta= 0.20
     Davidson diagonalization with overlap
     ethr =  8.10E-09,  avg # of iterations =  1.0

     negative rho (up, down):  2.010E-04 0.000E+00

     total cpu time spent up to now is     1380.2 secs

     total energy              =  -12616.38931252 Ry
     estimated scf accuracy    <       0.00001576 Ry

     iteration # 33     ecut=    70.00 Ry     beta= 0.20
     Davidson diagonalization with overlap
     ethr =  1.97E-09,  avg # of iterations =  7.4

     negative rho (up, down):  2.006E-04 0.000E+00

     total cpu time spent up to now is     1425.5 secs

     total energy              =  -12616.38931198 Ry
     estimated scf accuracy    <       0.00001090 Ry

     iteration # 34     ecut=    70.00 Ry     beta= 0.20
     Davidson diagonalization with overlap
     ethr =  1.36E-09,  avg # of iterations =  3.8

     negative rho (up, down):  2.002E-04 0.000E+00

     total cpu time spent up to now is     1468.8 secs

     total energy              =  -12616.38931080 Ry
     estimated scf accuracy    <       0.00003392 Ry

     iteration # 35     ecut=    70.00 Ry     beta= 0.20
     Davidson diagonalization with overlap
     ethr =  1.36E-09,  avg # of iterations =  2.0

     negative rho (up, down):  2.002E-04 0.000E+00

     total cpu time spent up to now is     1509.4 secs

     total energy              =  -12616.38931156 Ry
     estimated scf accuracy    <       0.00000722 Ry

     iteration # 36     ecut=    70.00 Ry     beta= 0.20
     Davidson diagonalization with overlap
     ethr =  9.03E-10,  avg # of iterations =  1.9

     negative rho (up, down):  2.002E-04 0.000E+00

     total cpu time spent up to now is     1549.9 secs

     total energy              =  -12616.38931165 Ry
     estimated scf accuracy    <       0.00000640 Ry

     iteration # 37     ecut=    70.00 Ry     beta= 0.20
     Davidson diagonalization with overlap
     ethr =  8.00E-10,  avg # of iterations =  1.0

     negative rho (up, down):  2.002E-04 0.000E+00

     total cpu time spent up to now is     1585.5 secs

     total energy              =  -12616.38931147 Ry
     estimated scf accuracy    <       0.00003015 Ry

     iteration # 38     ecut=    70.00 Ry     beta= 0.20
     Davidson diagonalization with overlap
     ethr =  8.00E-10,  avg # of iterations =  1.0

     negative rho (up, down):  2.000E-04 0.000E+00

     total cpu time spent up to now is     1621.2 secs

     total energy              =  -12616.38931161 Ry
     estimated scf accuracy    <       0.00000342 Ry

     iteration # 39     ecut=    70.00 Ry     beta= 0.20
     Davidson diagonalization with overlap
     ethr =  4.28E-10,  avg # of iterations =  1.0

     negative rho (up, down):  2.000E-04 0.000E+00

     total cpu time spent up to now is     1657.0 secs

     total energy              =  -12616.38931162 Ry
     estimated scf accuracy    <       0.00000161 Ry

     iteration # 40     ecut=    70.00 Ry     beta= 0.20
     Davidson diagonalization with overlap
     ethr =  2.01E-10,  avg # of iterations =  1.8

     negative rho (up, down):  1.997E-04 0.000E+00

     total cpu time spent up to now is     1697.4 secs

     total energy              =  -12616.38931154 Ry
     estimated scf accuracy    <       0.00000097 Ry

     iteration # 41     ecut=    70.00 Ry     beta= 0.20
     Davidson diagonalization with overlap
     ethr =  1.21E-10,  avg # of iterations =  2.0

     negative rho (up, down):  1.997E-04 0.000E+00

     total cpu time spent up to now is     1737.9 secs

     total energy              =  -12616.38931153 Ry
     estimated scf accuracy    <       0.00000140 Ry

     iteration # 42     ecut=    70.00 Ry     beta= 0.20
     Davidson diagonalization with overlap
     ethr =  1.21E-10,  avg # of iterations =  1.0

     negative rho (up, down):  1.997E-04 0.000E+00

     total cpu time spent up to now is     1773.3 secs

     total energy              =  -12616.38931157 Ry
     estimated scf accuracy    <       0.00000029 Ry

     iteration # 43     ecut=    70.00 Ry     beta= 0.20
     Davidson diagonalization with overlap
     ethr =  3.63E-11,  avg # of iterations =  2.6

     negative rho (up, down):  1.996E-04 0.000E+00

     total cpu time spent up to now is     1815.0 secs

     total energy              =  -12616.38931157 Ry
     estimated scf accuracy    <       0.00000026 Ry

     iteration # 44     ecut=    70.00 Ry     beta= 0.20
     Davidson diagonalization with overlap
     ethr =  3.23E-11,  avg # of iterations =  1.7

     negative rho (up, down):  1.996E-04 0.000E+00

     total cpu time spent up to now is     1854.7 secs

     total energy              =  -12616.38931157 Ry
     estimated scf accuracy    <       0.00000029 Ry

     iteration # 45     ecut=    70.00 Ry     beta= 0.20
     Davidson diagonalization with overlap
     ethr =  3.23E-11,  avg # of iterations =  1.5

     negative rho (up, down):  1.996E-04 0.000E+00

     total cpu time spent up to now is     1893.3 secs

     total energy              =  -12616.38931157 Ry
     estimated scf accuracy    <       0.00000021 Ry

     iteration # 46     ecut=    70.00 Ry     beta= 0.20
     Davidson diagonalization with overlap
     ethr =  2.60E-11,  avg # of iterations =  1.4

     negative rho (up, down):  1.995E-04 0.000E+00

     total cpu time spent up to now is     1932.3 secs

     total energy              =  -12616.38931157 Ry
     estimated scf accuracy    <       0.00000022 Ry

     iteration # 47     ecut=    70.00 Ry     beta= 0.20
     Davidson diagonalization with overlap
     ethr =  2.60E-11,  avg # of iterations =  1.0

     negative rho (up, down):  1.995E-04 0.000E+00

     total cpu time spent up to now is     1968.0 secs

     total energy              =  -12616.38931156 Ry
     estimated scf accuracy    <       0.00000084 Ry

     iteration # 48     ecut=    70.00 Ry     beta= 0.20
     Davidson diagonalization with overlap
     ethr =  2.60E-11,  avg # of iterations =  1.0

     negative rho (up, down):  1.995E-04 0.000E+00

     total cpu time spent up to now is     2003.5 secs

     total energy              =  -12616.38931156 Ry
     estimated scf accuracy    <       0.00000105 Ry

     iteration # 49     ecut=    70.00 Ry     beta= 0.20
     Davidson diagonalization with overlap
     ethr =  2.60E-11,  avg # of iterations =  1.0

     negative rho (up, down):  1.995E-04 0.000E+00

     total cpu time spent up to now is     2039.2 secs

     total energy              =  -12616.38931157 Ry
     estimated scf accuracy    <       0.00000002 Ry

     iteration # 50     ecut=    70.00 Ry     beta= 0.20
     Davidson diagonalization with overlap
     ethr =  2.95E-12,  avg # of iterations =  3.5

     negative rho (up, down):  1.995E-04 0.000E+00

     total cpu time spent up to now is     2080.9 secs

     total energy              =  -12616.38931157 Ry
     estimated scf accuracy    <       0.00000002 Ry

     iteration # 51     ecut=    70.00 Ry     beta= 0.20
     Davidson diagonalization with overlap
     ethr =  2.75E-12,  avg # of iterations =  1.9

     negative rho (up, down):  1.995E-04 0.000E+00

     total cpu time spent up to now is     2121.5 secs

     total energy              =  -12616.38931157 Ry
     estimated scf accuracy    <       0.00000002 Ry

     iteration # 52     ecut=    70.00 Ry     beta= 0.20
     Davidson diagonalization with overlap
     ethr =  2.67E-12,  avg # of iterations =  1.9

     negative rho (up, down):  1.995E-04 0.000E+00

     total cpu time spent up to now is     2162.1 secs

     total energy              =  -12616.38931157 Ry
     estimated scf accuracy    <       0.00000002 Ry

     iteration # 53     ecut=    70.00 Ry     beta= 0.20
     Davidson diagonalization with overlap
     ethr =  2.67E-12,  avg # of iterations =  1.1

     negative rho (up, down):  1.995E-04 0.000E+00

     total cpu time spent up to now is     2199.0 secs

     total energy              =  -12616.38931157 Ry
     estimated scf accuracy    <       0.00000001 Ry

     iteration # 54     ecut=    70.00 Ry     beta= 0.20
     Davidson diagonalization with overlap
     ethr =  1.53E-12,  avg # of iterations =  1.9

     negative rho (up, down):  1.995E-04 0.000E+00

     total cpu time spent up to now is     2239.5 secs

     total energy              =  -12616.38931157 Ry
     estimated scf accuracy    <       0.00000001 Ry

     iteration # 55     ecut=    70.00 Ry     beta= 0.20
     Davidson diagonalization with overlap
     ethr =  1.53E-12,  avg # of iterations =  1.0

     negative rho (up, down):  1.995E-04 0.000E+00

     total cpu time spent up to now is     2275.1 secs

     End of self-consistent calculation

          k = 0.0000 0.0000 0.0000 (108303 PWs)   bands (ev):

   -67.0739 -67.0334 -67.0333 -67.0332 -67.0251 -67.0248 -67.0244 -67.0226
   -66.9994 -66.9989 -66.9988 -66.9954 -66.9951 -66.9949 -66.9909 -66.9903
   -66.9898 -66.9885 -66.9880 -66.9778 -66.9769 -66.9761 -66.9735 -66.9724
   -66.8210 -66.7918 -66.7916 -66.7915 -66.7849 -66.7846 -66.7844 -66.7682
   -66.7679 -66.7675 -66.7615 -66.7614 -66.7291 -66.7076 -66.6973 -66.6968
   -66.6843 -66.6736 -66.6633 -66.6585 -66.6575 -66.6544 -66.6496 -66.6486
   -38.8778 -38.8506 -38.8505 -38.8485 -38.7483 -38.7483 -38.7478 -38.7090
   -38.7088 -38.6929 -38.6928 -38.6919 -38.6685 -38.6378 -38.6375 -38.6347
   -38.6148 -38.6145 -38.6138 -38.5881 -38.5843 -38.5839 -38.5506 -38.5505
   -38.5461 -38.5458 -38.5452 -38.5379 -38.4634 -38.4529 -38.4465 -38.4458
   -38.4449 -38.4412 -38.4411 -38.4392 -38.4377 -38.4376 -38.4011 -38.4007
   -38.4005 -38.3842 -38.3841 -38.3840 -38.3628 -38.3404 -38.3392 -38.3391
   -38.3366 -38.3361 -38.3357 -38.3356 -38.3356 -38.3220 -38.3171 -38.3170
   -38.3119 -38.3114 -38.3066 -38.3039 -38.3038 -38.3037 -38.3025 -38.3017
   -38.2907 -38.2891 -38.2890 -38.2845 -38.2765 -38.2753 -38.2747 -38.2299
   -38.2272 -38.2246 -38.2236 -38.2162 -38.2162 -38.2159 -38.2145 -38.2105
   -38.1987 -38.1896 -38.1895 -38.1867 -38.1691 -38.1687 -38.1683 -38.1586
   -38.1529 -38.1522 -38.1451 -38.1300 -38.1280 -38.1263 -38.1253 -38.1236
   -38.1150 -38.1127 -38.1067 -38.1064 -38.1047 -38.0774 -38.0769 -38.0768
   -38.0435 -38.0428 -38.0357 -38.0354 -38.0349 -38.0257 -38.0230 -38.0206
   -38.0196 -38.0186 -38.0177 -38.0008 -38.0001 -37.9954 -37.9952 -37.9849
   -37.9848 -37.9733 -37.9731 -37.9730 -37.9394 -37.9391 -37.9389 -37.9383
   -37.9378 -37.9377 -37.9093 -37.9092 -37.9041 -37.8899 -37.8830 -37.8824
   -37.7756 -37.7753 -37.7692 -37.7491 -37.7481 -37.7464 -37.7296 -37.7278
   -12.5749 -12.1049 -11.8725 -11.8721 -11.8715 -11.7251 -11.7238 -11.7211
   -11.6999 -11.6993 -11.6976 -11.4173 -11.4163 -11.4142 -11.3402 -11.3077
   -11.3069 -11.3052 -11.0763 -11.0546  -8.7827  -8.7827  -8.7827  -8.7251
    -7.8245  -3.0764  -3.0752  -3.0747  -2.8618  -2.8333  -2.8333  -2.6389
    -2.6388  -2.6386  -2.6188  -2.6112  -2.6110  -2.5430  -2.4844  -2.4784
    -2.4780  -2.3945  -2.3915  -2.3912  -2.3107  -2.3105  -1.8375  -1.8321
    -1.8320  -1.6555  -1.6545  -1.6537  -1.5691  -1.5663  -1.5605  -1.5017
    -1.4995  -1.4994  -1.4255  -1.4117  -1.4116  -1.4103  -1.3584  -1.3576
    -1.3008  -1.2999  -1.2985  -1.1617  -1.1614  -1.0578  -1.0024  -0.9922
    -0.9917  -0.9743  -0.9738  -0.9272  -0.8990  -0.8985  -0.8973  -0.7849
    -0.7593  -0.7586  -0.6760  -0.5094  -0.5075  -0.5071  -0.0904  -0.0703
     0.5842   1.1532   1.1533   1.1534   1.3961   1.3961   1.3962   1.4721
     1.4897   1.4897   1.5105   1.5111   1.5114   1.5325   1.5326   1.5327
     1.7035   1.7070   1.7073   1.9938   1.9941   1.9945   2.1199   2.1199
     2.1217   2.1514   2.2725   2.2782   2.2782   2.3655   2.3656   2.3698
     2.3804   2.3804   2.3804   2.4431   2.4443   2.4444   2.4613   2.6231
     2.6234   2.7265   2.7284   2.7287   3.0837   3.0838   3.1221   3.2142
     3.2142   3.2766   3.2778   3.2787   3.2933   3.2934   3.2971   3.4168
     3.4207   3.4248   3.4652   3.4837   3.4855   3.5731   3.5980   3.5982
     3.6064   3.6229   3.6239   3.6555   3.6560   3.6580   3.6626   3.7532
     3.7541   3.7574   3.9178   3.9247   3.9648   4.0669   4.0685   4.0730
     4.0876   4.0880   4.2239   4.2278   4.2287   4.2380   4.2949   4.2959
     4.2978   4.3474   4.3484   4.3487   4.3627   4.4257   4.4270   4.4272
     4.4786   4.4788   4.5754   4.6331   4.6355   4.6637   4.6772   4.7165
     4.7176   4.7457   4.7673   4.7677   4.8173   4.8193   4.8237   4.8842
     4.8890   4.8990   4.9469   4.9473   4.9786   5.0588   5.0657   5.0689
     5.1634   5.1695   5.2179   5.3223   5.3226   5.3236   5.4327   5.4328
     5.4748   5.4831   5.4834   5.4979   5.4982   5.4997   5.6244   5.6263
     5.6290   5.6369   5.6406   5.6420   5.6582   5.6594   5.6946   5.6965
     5.7223   5.7751   5.7896   5.7938   5.7963   5.8007   5.8011   5.8135
     5.8386   5.8435   5.9170   5.9221   5.9250   5.9411   5.9434   5.9439
     5.9442   5.9520   5.9983   5.9990   5.9992   6.0439   6.0517   6.0597
     6.1334   6.1349   6.1476   6.1479   6.1484   6.1927   6.1931   6.1994
     6.2032   6.2036   6.2478   6.2497   6.2505   6.2954   6.2980   6.3147
     6.4629   6.5016   6.5021   6.5025   6.5614   6.5622   6.5726   6.6017
     6.6039   6.6476   6.6501   6.6503   6.6576   6.6595   6.6792   6.7630

          k = 0.0000 0.2887 0.0000 (108355 PWs)   bands (ev):

   -67.0704 -67.0463 -67.0369 -67.0368 -67.0202 -67.0187 -67.0186 -67.0123
   -67.0036 -67.0018 -67.0016 -66.9977 -66.9976 -66.9972 -66.9910 -66.9902
   -66.9869 -66.9865 -66.9832 -66.9786 -66.9780 -66.9760 -66.9742 -66.9730
   -66.8184 -66.8006 -66.7941 -66.7937 -66.7809 -66.7804 -66.7765 -66.7698
   -66.7693 -66.7670 -66.7630 -66.7625 -66.7279 -66.7083 -66.6998 -66.6976
   -66.6831 -66.6719 -66.6615 -66.6581 -66.6574 -66.6550 -66.6506 -66.6496
   -38.8745 -38.8547 -38.8465 -38.8450 -38.7438 -38.7430 -38.7423 -38.7168
   -38.7074 -38.6996 -38.6993 -38.6966 -38.6701 -38.6550 -38.6409 -38.6385
   -38.6104 -38.6088 -38.5992 -38.5897 -38.5864 -38.5846 -38.5787 -38.5562
   -38.5400 -38.5396 -38.5379 -38.5164 -38.4570 -38.4559 -38.4510 -38.4465
   -38.4431 -38.4368 -38.4362 -38.4349 -38.4299 -38.4223 -38.4062 -38.4022
   -38.4014 -38.3925 -38.3873 -38.3863 -38.3627 -38.3560 -38.3435 -38.3412
   -38.3405 -38.3395 -38.3389 -38.3387 -38.3337 -38.3271 -38.3260 -38.3221
   -38.3196 -38.3187 -38.3120 -38.3071 -38.3068 -38.3007 -38.2916 -38.2893
   -38.2850 -38.2833 -38.2827 -38.2719 -38.2671 -38.2657 -38.2652 -38.2353
   -38.2316 -38.2304 -38.2280 -38.2276 -38.2210 -38.2154 -38.2150 -38.2021
   -38.1996 -38.1951 -38.1941 -38.1795 -38.1734 -38.1715 -38.1615 -38.1582
   -38.1554 -38.1486 -38.1447 -38.1339 -38.1297 -38.1259 -38.1239 -38.1161
   -38.1148 -38.1053 -38.1027 -38.1009 -38.0992 -38.0836 -38.0824 -38.0792
   -38.0479 -38.0435 -38.0415 -38.0332 -38.0332 -38.0308 -38.0212 -38.0189
   -38.0171 -38.0163 -38.0144 -37.9989 -37.9978 -37.9944 -37.9937 -37.9871
   -37.9854 -37.9756 -37.9755 -37.9716 -37.9454 -37.9415 -37.9414 -37.9330
   -37.9323 -37.9296 -37.9194 -37.9118 -37.9016 -37.8898 -37.8839 -37.8832
   -37.7734 -37.7725 -37.7666 -37.7500 -37.7475 -37.7437 -37.7375 -37.7300
   -12.5113 -12.0842 -12.0626 -11.9279 -11.9268 -11.7959 -11.7095 -11.7071
   -11.6343 -11.6327 -11.5539 -11.4085 -11.4061 -11.3592 -11.3400 -11.3384
   -11.3283 -11.2748 -11.1094 -11.0895  -8.7843  -8.7843  -8.7730  -8.7322
    -7.8245  -3.0443  -3.0427  -3.0023  -2.8904  -2.8195  -2.8074  -2.7824
    -2.7787  -2.7772  -2.6623  -2.6604  -2.5106  -2.4712  -2.4258  -2.4209
    -2.4202  -2.3619  -2.3096  -2.2802  -2.2769  -2.2318  -2.0318  -1.8422
    -1.8405  -1.7980  -1.7078  -1.7039  -1.6488  -1.5560  -1.5551  -1.5130
    -1.4956  -1.4674  -1.4647  -1.4415  -1.3967  -1.3953  -1.3833  -1.3275
    -1.3262  -1.3110  -1.1969  -1.1555  -1.1367  -1.0890  -1.0378  -0.9816
    -0.9730  -0.9674  -0.9147  -0.9098  -0.9066  -0.8785  -0.8510  -0.8089
    -0.7388  -0.7275  -0.6753  -0.5785  -0.5347  -0.5331  -0.0907  -0.0707
     0.7053   1.1147   1.1463   1.1465   1.3857   1.3857   1.3955   1.3979
     1.4624   1.4809   1.4815   1.5005   1.5621   1.6009   1.6026   1.6150
     1.7173   1.7188   1.7618   2.0018   2.0024   2.0456   2.0967   2.0982
     2.1507   2.2034   2.2370   2.2390   2.2633   2.3611   2.3630   2.3793
     2.3909   2.3918   2.4535   2.4848   2.4856   2.5050   2.5261   2.5554
     2.6583   2.7383   2.7389   2.8010   2.9541   3.0050   3.0680   3.1380
     3.1387   3.1694   3.1753   3.2023   3.3003   3.3027   3.3287   3.3355
     3.3361   3.3776   3.4540   3.5310   3.5377   3.5475   3.5774   3.6205
     3.6398   3.6498   3.6568   3.6685   3.7159   3.7186   3.7213   3.8037
     3.9274   3.9460   3.9565   3.9635   3.9764   3.9812   3.9944   4.0870
     4.1107   4.1176   4.1810   4.1845   4.2142   4.2371   4.2442   4.2469
     4.2730   4.2979   4.3175   4.3188   4.3410   4.4176   4.4235   4.4308
     4.4367   4.5037   4.5121   4.6087   4.6283   4.6582   4.6805   4.7055
     4.7204   4.7244   4.7741   4.7881   4.8205   4.8674   4.8772   4.8795
     4.9104   4.9148   4.9415   5.0031   5.0230   5.0759   5.0828   5.1223
     5.1336   5.1718   5.2081   5.2379   5.2639   5.2953   5.3056   5.3883
     5.4052   5.4080   5.4086   5.4595   5.4865   5.4940   5.5003   5.5131
     5.5157   5.6161   5.6405   5.6452   5.6828   5.6897   5.6957   5.7002
     5.7124   5.7459   5.7506   5.7693   5.7744   5.8227   5.8270   5.8291
     5.8315   5.8747   5.8859   5.9044   5.9103   5.9155   5.9550   5.9580
     5.9619   5.9754   5.9818   5.9853   5.9994   6.0007   6.0317   6.1152
     6.1426   6.1456   6.1644   6.1888   6.1905   6.1924   6.1956   6.2451
     6.2519   6.2541   6.2564   6.3062   6.3374   6.3426   6.3472   6.3917
     6.4045   6.4076   6.4743   6.4772   6.4908   6.4972   6.5874   6.5925
     6.6118   6.6273   6.6383   6.6580   6.6789   6.6854   6.7385   6.7396

          k = 0.0000-0.5774 0.0000 (108310 PWs)   bands (ev):

   -67.0606 -67.0605 -67.0390 -67.0389 -67.0135 -67.0132 -67.0110 -67.0109
   -67.0074 -67.0072 -66.9998 -66.9994 -66.9987 -66.9985 -66.9942 -66.9941
   -66.9826 -66.9822 -66.9813 -66.9807 -66.9773 -66.9769 -66.9747 -66.9746
   -66.8111 -66.8110 -66.7956 -66.7951 -66.7760 -66.7753 -66.7733 -66.7729
   -66.7683 -66.7678 -66.7649 -66.7648 -66.7265 -66.7094 -66.7019 -66.6982
   -66.6820 -66.6703 -66.6607 -66.6565 -66.6564 -66.6546 -66.6539 -66.6504
   -38.8656 -38.8649 -38.8421 -38.8408 -38.7374 -38.7356 -38.7323 -38.7314
   -38.7079 -38.7062 -38.7034 -38.7024 -38.6692 -38.6684 -38.6431 -38.6405
   -38.6068 -38.6044 -38.5968 -38.5962 -38.5917 -38.5895 -38.5709 -38.5694
   -38.5328 -38.5322 -38.5205 -38.5199 -38.4665 -38.4651 -38.4424 -38.4420
   -38.4361 -38.4358 -38.4270 -38.4264 -38.4154 -38.4147 -38.4041 -38.4036
   -38.3985 -38.3981 -38.3909 -38.3888 -38.3769 -38.3763 -38.3460 -38.3432
   -38.3431 -38.3428 -38.3386 -38.3382 -38.3367 -38.3347 -38.3307 -38.3250
   -38.3200 -38.3194 -38.3183 -38.3108 -38.3091 -38.3086 -38.2869 -38.2855
   -38.2737 -38.2663 -38.2638 -38.2610 -38.2592 -38.2572 -38.2556 -38.2538
   -38.2430 -38.2395 -38.2381 -38.2369 -38.2132 -38.2093 -38.2066 -38.2058
   -38.2028 -38.2026 -38.1896 -38.1885 -38.1760 -38.1728 -38.1620 -38.1556
   -38.1524 -38.1494 -38.1376 -38.1333 -38.1307 -38.1276 -38.1211 -38.1187
   -38.1127 -38.1113 -38.0983 -38.0953 -38.0924 -38.0889 -38.0695 -38.0678
   -38.0578 -38.0559 -38.0438 -38.0427 -38.0317 -38.0311 -38.0198 -38.0155
   -38.0140 -38.0129 -38.0089 -38.0069 -37.9942 -37.9913 -37.9908 -37.9885
   -37.9783 -37.9783 -37.9777 -37.9774 -37.9430 -37.9428 -37.9391 -37.9387
   -37.9290 -37.9282 -37.9193 -37.9192 -37.8989 -37.8887 -37.8858 -37.8846
   -37.7714 -37.7653 -37.7611 -37.7559 -37.7478 -37.7475 -37.7388 -37.7335
   -12.3348 -12.3338 -11.9626 -11.9614 -11.9486 -11.9466 -11.7172 -11.7149
   -11.5466 -11.5451 -11.4211 -11.4204 -11.4088 -11.4055 -11.3840 -11.3831
   -11.2019 -11.1992 -11.1821 -11.1820  -8.7859  -8.7859  -8.7513  -8.7513
    -7.8245  -3.0089  -3.0058  -2.9156  -2.9145  -2.8497  -2.8478  -2.8458
    -2.8438  -2.7218  -2.7215  -2.6053  -2.6042  -2.4422  -2.4387  -2.3769
    -2.3734  -2.3223  -2.3181  -2.1959  -2.1924  -2.1109  -2.1096  -1.9165
    -1.9159  -1.7785  -1.7728  -1.7319  -1.7279  -1.6450  -1.6411  -1.5201
    -1.5180  -1.5151  -1.5103  -1.3916  -1.3881  -1.3384  -1.3374  -1.3219
    -1.3199  -1.2061  -1.2051  -1.1244  -1.1233  -1.1093  -1.1054  -0.9801
    -0.9760  -0.9361  -0.9293  -0.9193  -0.9099  -0.8154  -0.8072  -0.7536
    -0.7454  -0.7055  -0.6958  -0.6632  -0.5585  -0.5564  -0.0910  -0.0711
     0.9481   0.9494   1.1342   1.1345   1.3643   1.3650   1.3858   1.3861
     1.4616   1.4617   1.4780   1.4781   1.6195   1.6205   1.6296   1.6341
     1.8559   1.8580   1.8631   1.8639   2.0348   2.0378   2.0735   2.0758
     2.1657   2.1671   2.2978   2.2987   2.3213   2.3218   2.3535   2.3538
     2.3920   2.3937   2.4049   2.4068   2.5133   2.5154   2.6815   2.6875
     2.7382   2.7413   2.7600   2.7629   2.9548   2.9578   2.9759   2.9768
     3.0464   3.0469   3.1412   3.1478   3.2647   3.2660   3.3268   3.3274
     3.3602   3.3621   3.4565   3.4585   3.5575   3.5632   3.6096   3.6107
     3.6734   3.6773   3.7504   3.7559   3.8065   3.8096   3.8447   3.8476
     3.8813   3.8815   3.9081   3.9206   3.9399   3.9461   4.0681   4.0818
     4.0879   4.0920   4.2157   4.2232   4.2313   4.2586   4.2708   4.2836
     4.2970   4.2996   4.3009   4.3172   4.3792   4.4001   4.4087   4.4126
     4.4165   4.4203   4.5449   4.5484   4.5494   4.5684   4.6167   4.6178
     4.6364   4.6369   4.7488   4.7648   4.9250   4.9292   4.9315   4.9341
     4.9366   4.9555   4.9999   5.0125   5.0552   5.0577   5.0741   5.0769
     5.1233   5.1256   5.2071   5.2334   5.2813   5.2824   5.2937   5.2960
     5.3754   5.3771   5.4048   5.4264   5.4612   5.4631   5.5020   5.5164
     5.5257   5.5308   5.5361   5.5649   5.6438   5.6468   5.6832   5.6839
     5.7019   5.7056   5.7111   5.7256   5.7789   5.7857   5.8125   5.8165
     5.8250   5.8362   5.8499   5.8529   5.9019   5.9213   5.9420   5.9434
     5.9781   5.9906   6.0162   6.0324   6.0938   6.1011   6.1088   6.1158
     6.1164   6.1228   6.1336   6.1378   6.1484   6.1519   6.2810   6.2822
     6.2849   6.2922   6.3259   6.3286   6.3647   6.3679   6.3842   6.3866
     6.4011   6.4060   6.4347   6.4353   6.5530   6.5568   6.5604   6.5611
     6.5942   6.6000   6.6514   6.6530   6.7902   6.7941   6.8016   6.8056

          k = 0.2500 0.4330 0.0000 (108308 PWs)   bands (ev):

   -67.0637 -67.0518 -67.0515 -67.0279 -67.0198 -67.0155 -67.0102 -67.0077
   -67.0070 -67.0050 -67.0049 -66.9992 -66.9986 -66.9954 -66.9944 -66.9919
   -66.9872 -66.9824 -66.9800 -66.9793 -66.9775 -66.9760 -66.9757 -66.9744
   -66.8134 -66.8046 -66.8045 -66.7879 -66.7812 -66.7751 -66.7718 -66.7717
   -66.7678 -66.7677 -66.7657 -66.7648 -66.7266 -66.7082 -66.7046 -66.6964
   -66.6823 -66.6703 -66.6600 -66.6580 -66.6559 -66.6553 -66.6523 -66.6510
   -38.8678 -38.8563 -38.8554 -38.8337 -38.7379 -38.7377 -38.7319 -38.7276
   -38.7131 -38.7050 -38.7023 -38.7008 -38.6698 -38.6606 -38.6606 -38.6211
   -38.6148 -38.6031 -38.6028 -38.5972 -38.5960 -38.5793 -38.5769 -38.5638
   -38.5286 -38.5283 -38.5274 -38.5161 -38.4924 -38.4449 -38.4449 -38.4440
   -38.4359 -38.4322 -38.4228 -38.4200 -38.4198 -38.4136 -38.4133 -38.4047
   -38.3982 -38.3916 -38.3914 -38.3900 -38.3728 -38.3676 -38.3665 -38.3457
   -38.3446 -38.3415 -38.3403 -38.3358 -38.3313 -38.3291 -38.3259 -38.3256
   -38.3231 -38.3201 -38.3170 -38.3110 -38.3081 -38.3068 -38.3062 -38.2725
   -38.2725 -38.2684 -38.2665 -38.2607 -38.2585 -38.2568 -38.2551 -38.2464
   -38.2442 -38.2418 -38.2405 -38.2382 -38.2151 -38.2083 -38.2074 -38.2007
   -38.1985 -38.1968 -38.1962 -38.1919 -38.1862 -38.1682 -38.1594 -38.1559
   -38.1521 -38.1503 -38.1357 -38.1356 -38.1328 -38.1276 -38.1251 -38.1209
   -38.1131 -38.1011 -38.0992 -38.0958 -38.0907 -38.0791 -38.0776 -38.0735
   -38.0578 -38.0462 -38.0462 -38.0418 -38.0329 -38.0303 -38.0233 -38.0184
   -38.0160 -38.0108 -38.0102 -38.0058 -37.9942 -37.9909 -37.9902 -37.9867
   -37.9828 -37.9812 -37.9729 -37.9728 -37.9473 -37.9473 -37.9357 -37.9349
   -37.9333 -37.9238 -37.9237 -37.9159 -37.8992 -37.8886 -37.8855 -37.8847
   -37.7693 -37.7674 -37.7611 -37.7570 -37.7504 -37.7419 -37.7413 -37.7329
   -12.3911 -12.1778 -12.1775 -11.9839 -11.8495 -11.8488 -11.8004 -11.6329
   -11.6073 -11.4968 -11.4778 -11.4773 -11.4617 -11.3968 -11.2847 -11.2840
   -11.2622 -11.2620 -11.1728 -11.1543  -8.7946  -8.7671  -8.7671  -8.7455
    -7.8245  -3.0584  -2.9599  -2.9590  -2.9428  -2.8306  -2.8300  -2.7897
    -2.7537  -2.7020  -2.6885  -2.6661  -2.6646  -2.6198  -2.4303  -2.2955
    -2.2932  -2.2814  -2.2574  -2.2053  -2.2020  -2.1589  -2.1577  -2.0328
    -1.8562  -1.8488  -1.7680  -1.7420  -1.6545  -1.6007  -1.5989  -1.5217
    -1.4971  -1.4788  -1.4490  -1.4454  -1.4401  -1.4396  -1.3808  -1.2622
    -1.2612  -1.2162  -1.2157  -1.1940  -1.1480  -1.0348  -1.0167  -1.0093
    -0.9589  -0.9433  -0.9343  -0.9106  -0.8924  -0.8834  -0.8388  -0.8274
    -0.7357  -0.6797  -0.6371  -0.6261  -0.6226  -0.5297  -0.0910  -0.0711
     0.8822   1.0662   1.0662   1.1670   1.3511   1.3678   1.3679   1.3702
     1.4137   1.4951   1.4952   1.5224   1.5882   1.6076   1.6079   1.6657
     1.7838   1.9021   1.9031   1.9907   1.9917   2.0551   2.0560   2.1136
     2.1204   2.1830   2.1832   2.2149   2.2892   2.2951   2.3298   2.3299
     2.3809   2.4309   2.4975   2.5238   2.5246   2.6087   2.6095   2.7249
     2.7271   2.7310   2.7620   2.7667   2.8644   2.8688   2.8694   2.9359
     3.1177   3.1811   3.2261   3.2267   3.2723   3.2728   3.2798   3.3658
     3.3708   3.3716   3.3880   3.4960   3.5155   3.5164   3.5875   3.6439
     3.6560   3.6902   3.6905   3.7220   3.7276   3.7837   3.8058   3.8242
     3.9554   3.9670   3.9876   4.0039   4.0048   4.0163   4.0172   4.0567
     4.0929   4.1118   4.1377   4.1736   4.1740   4.2337   4.2471   4.2659
     4.2989   4.3008   4.3253   4.3403   4.3734   4.3770   4.3985   4.4040
     4.4986   4.4997   4.5229   4.5331   4.5405   4.5441   4.5646   4.6124
     4.6666   4.7981   4.7989   4.8186   4.8240   4.8323   4.8394   4.8448
     4.8922   4.9121   4.9795   4.9934   5.0610   5.0825   5.1004   5.1030
     5.1164   5.2128   5.2282   5.2522   5.2547   5.2855   5.3251   5.3614
     5.3732   5.3743   5.3915   5.4211   5.4449   5.4546   5.4788   5.5211
     5.5378   5.5540   5.5715   5.6490   5.6617   5.6676   5.6733   5.6739
     5.7082   5.7141   5.7159   5.7191   5.7334   5.7962   5.8016   5.8130
     5.8165   5.8282   5.8516   5.8600   5.8672   5.9056   5.9145   5.9689
     5.9695   5.9793   6.0035   6.0124   6.0325   6.0382   6.0464   6.1160
     6.1174   6.1192   6.1514   6.1542   6.1759   6.2066   6.2300   6.2402
     6.2771   6.2862   6.3090   6.3119   6.3691   6.3976   6.4054   6.4379
     6.4404   6.4411   6.5045   6.5048   6.5339   6.5576   6.5893   6.6098
     6.6122   6.6235   6.6517   6.6648   6.6730   6.7341   6.7870   6.7916

          k =-0.2500 0.1443 0.0000 (108355 PWs)   bands (ev):

   -67.0704 -67.0463 -67.0371 -67.0366 -67.0202 -67.0189 -67.0183 -67.0124
   -67.0037 -67.0020 -67.0015 -66.9979 -66.9975 -66.9967 -66.9912 -66.9900
   -66.9876 -66.9861 -66.9832 -66.9788 -66.9772 -66.9764 -66.9741 -66.9731
   -66.8184 -66.8006 -66.7939 -66.7939 -66.7807 -66.7806 -66.7764 -66.7696
   -66.7696 -66.7670 -66.7630 -66.7626 -66.7279 -66.7086 -66.6997 -66.6977
   -66.6825 -66.6724 -66.6611 -66.6586 -66.6574 -66.6547 -66.6511 -66.6491
   -38.8745 -38.8546 -38.8464 -38.8452 -38.7435 -38.7432 -38.7425 -38.7166
   -38.7077 -38.6995 -38.6993 -38.6968 -38.6702 -38.6552 -38.6410 -38.6379
   -38.6106 -38.6087 -38.5993 -38.5898 -38.5859 -38.5848 -38.5785 -38.5563
   -38.5403 -38.5393 -38.5382 -38.5165 -38.4564 -38.4560 -38.4511 -38.4464
   -38.4434 -38.4367 -38.4363 -38.4351 -38.4298 -38.4225 -38.4059 -38.4022
   -38.4014 -38.3930 -38.3867 -38.3863 -38.3626 -38.3558 -38.3437 -38.3413
   -38.3405 -38.3396 -38.3390 -38.3387 -38.3333 -38.3281 -38.3262 -38.3224
   -38.3197 -38.3187 -38.3109 -38.3072 -38.3064 -38.3001 -38.2921 -38.2891
   -38.2856 -38.2836 -38.2828 -38.2714 -38.2662 -38.2660 -38.2655 -38.2367
   -38.2326 -38.2300 -38.2280 -38.2263 -38.2204 -38.2152 -38.2151 -38.2020
   -38.1994 -38.1951 -38.1945 -38.1792 -38.1715 -38.1711 -38.1654 -38.1580
   -38.1558 -38.1465 -38.1443 -38.1340 -38.1295 -38.1260 -38.1243 -38.1168
   -38.1142 -38.1047 -38.1031 -38.1003 -38.0993 -38.0841 -38.0826 -38.0792
   -38.0479 -38.0436 -38.0411 -38.0338 -38.0330 -38.0306 -38.0203 -38.0201
   -38.0182 -38.0157 -38.0149 -37.9989 -37.9971 -37.9942 -37.9935 -37.9869
   -37.9857 -37.9758 -37.9755 -37.9716 -37.9454 -37.9416 -37.9415 -37.9326
   -37.9325 -37.9297 -37.9193 -37.9119 -37.9015 -37.8899 -37.8839 -37.8833
   -37.7739 -37.7721 -37.7668 -37.7492 -37.7463 -37.7453 -37.7361 -37.7313
   -12.5113 -12.0841 -12.0626 -11.9276 -11.9272 -11.7959 -11.7087 -11.7079
   -11.6338 -11.6332 -11.5540 -11.4077 -11.4070 -11.3592 -11.3395 -11.3391
   -11.3282 -11.2747 -11.1094 -11.0895  -8.7843  -8.7843  -8.7730  -8.7322
    -7.8245  -3.0442  -3.0427  -3.0027  -2.8904  -2.8196  -2.8073  -2.7812
    -2.7792  -2.7769  -2.6623  -2.6604  -2.5121  -2.4720  -2.4256  -2.4209
    -2.4205  -2.3616  -2.3092  -2.2787  -2.2767  -2.2315  -2.0317  -1.8438
    -1.8403  -1.7983  -1.7066  -1.7044  -1.6501  -1.5554  -1.5548  -1.5127
    -1.4956  -1.4661  -1.4644  -1.4417  -1.3961  -1.3949  -1.3850  -1.3285
    -1.3272  -1.3105  -1.1969  -1.1554  -1.1380  -1.0891  -1.0350  -0.9816
    -0.9723  -0.9679  -0.9200  -0.9081  -0.9071  -0.8782  -0.8509  -0.7995
    -0.7456  -0.7269  -0.6792  -0.5744  -0.5345  -0.5335  -0.0908  -0.0705
     0.7051   1.1146   1.1464   1.1465   1.3856   1.3857   1.3955   1.3979
     1.4626   1.4809   1.4813   1.5005   1.5622   1.6008   1.6017   1.6152
     1.7163   1.7188   1.7624   2.0016   2.0022   2.0462   2.0958   2.0981
     2.1509   2.2030   2.2380   2.2396   2.2632   2.3608   2.3622   2.3795
     2.3900   2.3915   2.4549   2.4850   2.4861   2.5048   2.5261   2.5549
     2.6579   2.7381   2.7390   2.8019   2.9555   3.0046   3.0691   3.1380
     3.1394   3.1693   3.1754   3.2029   3.2998   3.3022   3.3286   3.3356
     3.3359   3.3784   3.4551   3.5229   3.5380   3.5468   3.5785   3.6273
     3.6376   3.6516   3.6597   3.6680   3.7147   3.7189   3.7208   3.8034
     3.9327   3.9444   3.9572   3.9613   3.9739   3.9815   3.9947   4.0810
     4.1092   4.1217   4.1805   4.1883   4.2138   4.2345   4.2373   4.2445
     4.2741   4.2990   4.3175   4.3193   4.3385   4.4182   4.4240   4.4333
     4.4411   4.4999   4.5110   4.6048   4.6333   4.6734   4.6760   4.7050
     4.7133   4.7243   4.7746   4.7818   4.8187   4.8624   4.8779   4.8811
     4.9141   4.9223   4.9418   5.0026   5.0327   5.0742   5.0806   5.1239
     5.1343   5.1701   5.2086   5.2373   5.2680   5.2949   5.3030   5.3857
     5.4053   5.4079   5.4082   5.4600   5.4858   5.4886   5.4977   5.5126
     5.5133   5.6125   5.6413   5.6670   5.6797   5.6913   5.6961   5.6984
     5.7045   5.7486   5.7518   5.7681   5.7744   5.8179   5.8277   5.8296
     5.8335   5.8763   5.8927   5.9043   5.9091   5.9176   5.9513   5.9575
     5.9606   5.9738   5.9830   5.9856   5.9988   6.0006   6.0303   6.1186
     6.1410   6.1454   6.1652   6.1863   6.1901   6.1947   6.1956   6.2501
     6.2530   6.2541   6.2554   6.3050   6.3353   6.3407   6.3432   6.3916
     6.4047   6.4100   6.4741   6.4760   6.4912   6.4966   6.5883   6.5930
     6.6128   6.6285   6.6378   6.6566   6.6787   6.6883   6.7355   6.7396

          k = 0.2500 0.1443 0.0000 (108355 PWs)   bands (ev):

   -67.0704 -67.0463 -67.0369 -67.0368 -67.0202 -67.0188 -67.0186 -67.0123
   -67.0036 -67.0018 -67.0016 -66.9977 -66.9976 -66.9972 -66.9910 -66.9902
   -66.9869 -66.9865 -66.9832 -66.9786 -66.9779 -66.9760 -66.9742 -66.9730
   -66.8184 -66.8006 -66.7941 -66.7937 -66.7809 -66.7804 -66.7765 -66.7698
   -66.7693 -66.7670 -66.7630 -66.7625 -66.7279 -66.7083 -66.6998 -66.6976
   -66.6831 -66.6719 -66.6615 -66.6581 -66.6574 -66.6550 -66.6506 -66.6496
   -38.8745 -38.8547 -38.8465 -38.8450 -38.7438 -38.7430 -38.7423 -38.7168
   -38.7074 -38.6996 -38.6993 -38.6966 -38.6701 -38.6550 -38.6409 -38.6384
   -38.6104 -38.6088 -38.5992 -38.5897 -38.5864 -38.5846 -38.5787 -38.5562
   -38.5400 -38.5396 -38.5379 -38.5165 -38.4570 -38.4559 -38.4510 -38.4465
   -38.4431 -38.4368 -38.4362 -38.4349 -38.4299 -38.4223 -38.4062 -38.4022
   -38.4014 -38.3926 -38.3872 -38.3863 -38.3627 -38.3560 -38.3435 -38.3412
   -38.3405 -38.3395 -38.3389 -38.3387 -38.3337 -38.3271 -38.3260 -38.3221
   -38.3196 -38.3187 -38.3120 -38.3071 -38.3068 -38.3007 -38.2916 -38.2893
   -38.2850 -38.2833 -38.2827 -38.2719 -38.2671 -38.2656 -38.2652 -38.2353
   -38.2316 -38.2304 -38.2280 -38.2276 -38.2210 -38.2154 -38.2149 -38.2021
   -38.1996 -38.1951 -38.1941 -38.1795 -38.1734 -38.1715 -38.1615 -38.1582
   -38.1554 -38.1486 -38.1447 -38.1339 -38.1297 -38.1259 -38.1239 -38.1161
   -38.1148 -38.1053 -38.1027 -38.1009 -38.0992 -38.0836 -38.0824 -38.0792
   -38.0479 -38.0435 -38.0415 -38.0332 -38.0332 -38.0308 -38.0213 -38.0189
   -38.0171 -38.0163 -38.0144 -37.9989 -37.9978 -37.9944 -37.9937 -37.9871
   -37.9854 -37.9756 -37.9755 -37.9716 -37.9454 -37.9415 -37.9414 -37.9330
   -37.9323 -37.9296 -37.9194 -37.9118 -37.9016 -37.8898 -37.8839 -37.8832
   -37.7735 -37.7724 -37.7666 -37.7500 -37.7475 -37.7437 -37.7375 -37.7300
   -12.5113 -12.0842 -12.0626 -11.9279 -11.9268 -11.7959 -11.7095 -11.7072
   -11.6343 -11.6327 -11.5539 -11.4085 -11.4062 -11.3592 -11.3400 -11.3384
   -11.3283 -11.2748 -11.1094 -11.0895  -8.7843  -8.7843  -8.7730  -8.7322
    -7.8245  -3.0443  -3.0427  -3.0023  -2.8904  -2.8195  -2.8074  -2.7824
    -2.7787  -2.7772  -2.6623  -2.6604  -2.5107  -2.4712  -2.4258  -2.4209
    -2.4202  -2.3619  -2.3096  -2.2802  -2.2769  -2.2318  -2.0318  -1.8423
    -1.8405  -1.7980  -1.7078  -1.7039  -1.6488  -1.5560  -1.5551  -1.5130
    -1.4956  -1.4674  -1.4647  -1.4415  -1.3967  -1.3953  -1.3833  -1.3275
    -1.3262  -1.3110  -1.1969  -1.1555  -1.1367  -1.0890  -1.0378  -0.9816
    -0.9729  -0.9674  -0.9147  -0.9098  -0.9066  -0.8785  -0.8510  -0.8090
    -0.7387  -0.7275  -0.6753  -0.5785  -0.5347  -0.5331  -0.0907  -0.0707
     0.7053   1.1147   1.1463   1.1466   1.3857   1.3857   1.3955   1.3979
     1.4624   1.4809   1.4815   1.5005   1.5621   1.6009   1.6026   1.6150
     1.7172   1.7188   1.7618   2.0018   2.0024   2.0456   2.0967   2.0982
     2.1507   2.2034   2.2370   2.2390   2.2633   2.3610   2.3630   2.3793
     2.3909   2.3918   2.4536   2.4848   2.4856   2.5050   2.5261   2.5554
     2.6583   2.7383   2.7389   2.8010   2.9541   3.0050   3.0681   3.1381
     3.1388   3.1694   3.1753   3.2023   3.3003   3.3027   3.3287   3.3355
     3.3361   3.3776   3.4540   3.5307   3.5377   3.5476   3.5775   3.6209
     3.6398   3.6493   3.6570   3.6685   3.7159   3.7186   3.7213   3.8036
     3.9273   3.9463   3.9566   3.9633   3.9764   3.9811   3.9944   4.0871
     4.1108   4.1175   4.1809   4.1845   4.2140   4.2373   4.2442   4.2471
     4.2729   4.2980   4.3179   4.3186   4.3410   4.4176   4.4237   4.4307
     4.4366   4.5035   4.5121   4.6088   4.6280   4.6583   4.6802   4.7054
     4.7205   4.7243   4.7741   4.7880   4.8205   4.8674   4.8772   4.8796
     4.9106   4.9149   4.9415   5.0030   5.0232   5.0757   5.0829   5.1226
     5.1334   5.1718   5.2082   5.2380   5.2640   5.2953   5.3055   5.3882
     5.4051   5.4080   5.4086   5.4595   5.4860   5.4940   5.5005   5.5130
     5.5158   5.6166   5.6404   5.6458   5.6819   5.6898   5.6957   5.7001
     5.7125   5.7461   5.7505   5.7694   5.7744   5.8223   5.8271   5.8291
     5.8316   5.8750   5.8862   5.9044   5.9102   5.9155   5.9549   5.9580
     5.9620   5.9753   5.9818   5.9853   5.9994   6.0007   6.0317   6.1152
     6.1426   6.1456   6.1644   6.1886   6.1905   6.1925   6.1955   6.2451
     6.2520   6.2540   6.2563   6.3061   6.3374   6.3426   6.3474   6.3917
     6.4046   6.4076   6.4742   6.4772   6.4908   6.4973   6.5874   6.5924
     6.6119   6.6274   6.6382   6.6582   6.6785   6.6855   6.7383   6.7400

          k = 0.5000-0.2887 0.0000 (108310 PWs)   bands (ev):

   -67.0607 -67.0604 -67.0392 -67.0387 -67.0136 -67.0130 -67.0114 -67.0106
   -67.0076 -67.0073 -66.9998 -66.9992 -66.9992 -66.9981 -66.9942 -66.9939
   -66.9838 -66.9819 -66.9810 -66.9799 -66.9778 -66.9761 -66.9752 -66.9746
   -66.8111 -66.8111 -66.7954 -66.7953 -66.7758 -66.7757 -66.7730 -66.7730
   -66.7681 -66.7680 -66.7649 -66.7649 -66.7264 -66.7099 -66.7019 -66.6981
   -66.6811 -66.6712 -66.6599 -66.6576 -66.6556 -66.6547 -66.6546 -66.6498
   -38.8655 -38.8649 -38.8421 -38.8409 -38.7377 -38.7357 -38.7322 -38.7309
   -38.7080 -38.7062 -38.7038 -38.7024 -38.6693 -38.6684 -38.6432 -38.6398
   -38.6073 -38.6045 -38.5962 -38.5960 -38.5923 -38.5889 -38.5714 -38.5692
   -38.5331 -38.5320 -38.5208 -38.5201 -38.4658 -38.4652 -38.4427 -38.4419
   -38.4361 -38.4358 -38.4269 -38.4265 -38.4151 -38.4148 -38.4044 -38.4034
   -38.3988 -38.3982 -38.3898 -38.3888 -38.3772 -38.3763 -38.3458 -38.3433
   -38.3430 -38.3429 -38.3387 -38.3384 -38.3370 -38.3348 -38.3326 -38.3251
   -38.3192 -38.3190 -38.3172 -38.3110 -38.3093 -38.3087 -38.2869 -38.2855
   -38.2751 -38.2661 -38.2622 -38.2613 -38.2593 -38.2573 -38.2556 -38.2535
   -38.2461 -38.2397 -38.2379 -38.2362 -38.2117 -38.2077 -38.2068 -38.2058
   -38.2023 -38.2023 -38.1900 -38.1896 -38.1730 -38.1718 -38.1699 -38.1542
   -38.1520 -38.1462 -38.1375 -38.1336 -38.1307 -38.1272 -38.1199 -38.1198
   -38.1126 -38.1114 -38.0974 -38.0947 -38.0944 -38.0895 -38.0685 -38.0675
   -38.0574 -38.0561 -38.0455 -38.0431 -38.0320 -38.0309 -38.0194 -38.0163
   -38.0160 -38.0127 -38.0082 -38.0060 -37.9923 -37.9914 -37.9911 -37.9888
   -37.9786 -37.9782 -37.9778 -37.9773 -37.9432 -37.9429 -37.9388 -37.9387
   -37.9285 -37.9284 -37.9194 -37.9193 -37.8988 -37.8880 -37.8871 -37.8842
   -37.7722 -37.7655 -37.7610 -37.7543 -37.7470 -37.7459 -37.7408 -37.7344
   -12.3345 -12.3341 -11.9623 -11.9618 -11.9478 -11.9473 -11.7165 -11.7156
   -11.5460 -11.5456 -11.4208 -11.4208 -11.4076 -11.4065 -11.3837 -11.3835
   -11.2007 -11.2003 -11.1821 -11.1820  -8.7859  -8.7859  -8.7513  -8.7513
    -7.8246  -3.0097  -3.0056  -2.9155  -2.9145  -2.8494  -2.8487  -2.8447
    -2.8441  -2.7218  -2.7213  -2.6050  -2.6040  -2.4419  -2.4388  -2.3758
    -2.3747  -2.3210  -2.3183  -2.1973  -2.1923  -2.1104  -2.1094  -1.9177
    -1.9157  -1.7790  -1.7725  -1.7312  -1.7279  -1.6483  -1.6413  -1.5183
    -1.5180  -1.5114  -1.5109  -1.3938  -1.3884  -1.3390  -1.3374  -1.3218
    -1.3198  -1.2064  -1.2055  -1.1262  -1.1236  -1.1107  -1.1056  -0.9778
    -0.9760  -0.9299  -0.9293  -0.9162  -0.9100  -0.8106  -0.8077  -0.7790
    -0.7452  -0.6964  -0.6951  -0.6566  -0.5586  -0.5577  -0.0913  -0.0707
     0.9484   0.9488   1.1343   1.1344   1.3646   1.3648   1.3857   1.3859
     1.4617   1.4618   1.4780   1.4782   1.6200   1.6204   1.6294   1.6318
     1.8557   1.8579   1.8622   1.8636   2.0361   2.0374   2.0731   2.0758
     2.1663   2.1676   2.2978   2.2989   2.3213   2.3223   2.3531   2.3534
     2.3920   2.3932   2.4039   2.4065   2.5129   2.5153   2.6839   2.6884
     2.7399   2.7408   2.7598   2.7621   2.9577   2.9582   2.9765   2.9778
     3.0466   3.0470   3.1418   3.1441   3.2650   3.2654   3.3248   3.3284
     3.3593   3.3626   3.4567   3.4571   3.5513   3.5636   3.6105   3.6113
     3.6729   3.6778   3.7516   3.7563   3.8101   3.8195   3.8429   3.8482
     3.8795   3.8833   3.9049   3.9247   3.9428   3.9479   4.0634   4.0808
     4.0900   4.0929   4.1998   4.2233   4.2384   4.2603   4.2676   4.2843
     4.2899   4.3007   4.3021   4.3125   4.3794   4.3884   4.4050   4.4089
     4.4165   4.4205   4.5479   4.5496   4.5549   4.5767   4.6172   4.6178
     4.6368   4.6404   4.7486   4.7581   4.9253   4.9289   4.9322   4.9350
     4.9362   4.9603   5.0024   5.0321   5.0554   5.0575   5.0733   5.0810
     5.1220   5.1247   5.2032   5.2204   5.2818   5.2826   5.2941   5.2959
     5.3760   5.3770   5.4062   5.4272   5.4573   5.4635   5.5026   5.5162
     5.5279   5.5299   5.5358   5.5531   5.6448   5.6459   5.6819   5.6824
     5.6980   5.7048   5.7241   5.7375   5.7700   5.7881   5.8112   5.8155
     5.8305   5.8368   5.8483   5.8529   5.9113   5.9188   5.9410   5.9435
     5.9782   5.9894   6.0164   6.0411   6.0918   6.1014   6.1062   6.1147
     6.1169   6.1252   6.1299   6.1383   6.1503   6.1520   6.2797   6.2811
     6.2851   6.2897   6.3239   6.3290   6.3664   6.3674   6.3832   6.3861
     6.4016   6.4045   6.4332   6.4353   6.5534   6.5543   6.5606   6.5614
     6.5937   6.6013   6.6513   6.6613   6.7896   6.7948   6.7988   6.8047

          k =-0.5000-0.2887 0.0000 (108310 PWs)   bands (ev):

   -67.0606 -67.0605 -67.0390 -67.0389 -67.0135 -67.0132 -67.0110 -67.0109
   -67.0074 -67.0072 -66.9998 -66.9994 -66.9987 -66.9985 -66.9942 -66.9942
   -66.9826 -66.9822 -66.9812 -66.9807 -66.9772 -66.9769 -66.9747 -66.9746
   -66.8111 -66.8110 -66.7956 -66.7951 -66.7760 -66.7754 -66.7733 -66.7729
   -66.7683 -66.7678 -66.7649 -66.7648 -66.7265 -66.7094 -66.7020 -66.6982
   -66.6820 -66.6703 -66.6607 -66.6566 -66.6563 -66.6546 -66.6538 -66.6503
   -38.8656 -38.8649 -38.8421 -38.8408 -38.7374 -38.7357 -38.7323 -38.7314
   -38.7079 -38.7062 -38.7034 -38.7024 -38.6692 -38.6684 -38.6431 -38.6405
   -38.6068 -38.6044 -38.5968 -38.5962 -38.5917 -38.5895 -38.5709 -38.5694
   -38.5328 -38.5322 -38.5206 -38.5199 -38.4665 -38.4651 -38.4424 -38.4420
   -38.4361 -38.4358 -38.4270 -38.4264 -38.4154 -38.4147 -38.4041 -38.4036
   -38.3985 -38.3981 -38.3909 -38.3888 -38.3769 -38.3763 -38.3460 -38.3432
   -38.3431 -38.3428 -38.3386 -38.3382 -38.3367 -38.3347 -38.3307 -38.3251
   -38.3199 -38.3194 -38.3183 -38.3107 -38.3091 -38.3086 -38.2869 -38.2855
   -38.2737 -38.2663 -38.2638 -38.2610 -38.2592 -38.2572 -38.2556 -38.2538
   -38.2430 -38.2396 -38.2381 -38.2370 -38.2132 -38.2093 -38.2066 -38.2058
   -38.2028 -38.2026 -38.1896 -38.1885 -38.1760 -38.1728 -38.1621 -38.1556
   -38.1524 -38.1493 -38.1376 -38.1333 -38.1307 -38.1276 -38.1211 -38.1186
   -38.1127 -38.1113 -38.0983 -38.0953 -38.0924 -38.0890 -38.0695 -38.0678
   -38.0578 -38.0559 -38.0438 -38.0427 -38.0317 -38.0311 -38.0199 -38.0155
   -38.0139 -38.0129 -38.0090 -38.0068 -37.9942 -37.9913 -37.9908 -37.9885
   -37.9784 -37.9783 -37.9777 -37.9775 -37.9430 -37.9428 -37.9391 -37.9387
   -37.9290 -37.9282 -37.9193 -37.9192 -37.8989 -37.8887 -37.8858 -37.8846
   -37.7715 -37.7653 -37.7610 -37.7559 -37.7478 -37.7475 -37.7388 -37.7335
   -12.3348 -12.3338 -11.9625 -11.9614 -11.9486 -11.9466 -11.7171 -11.7149
   -11.5466 -11.5451 -11.4211 -11.4204 -11.4087 -11.4055 -11.3840 -11.3831
   -11.2019 -11.1991 -11.1821 -11.1820  -8.7859  -8.7859  -8.7513  -8.7513
    -7.8245  -3.0089  -3.0058  -2.9156  -2.9145  -2.8497  -2.8478  -2.8458
    -2.8438  -2.7218  -2.7215  -2.6053  -2.6042  -2.4422  -2.4387  -2.3769
    -2.3735  -2.3223  -2.3181  -2.1959  -2.1924  -2.1109  -2.1096  -1.9165
    -1.9160  -1.7785  -1.7728  -1.7319  -1.7279  -1.6451  -1.6411  -1.5201
    -1.5179  -1.5151  -1.5103  -1.3916  -1.3881  -1.3384  -1.3374  -1.3219
    -1.3200  -1.2061  -1.2051  -1.1244  -1.1233  -1.1093  -1.1054  -0.9800
    -0.9760  -0.9361  -0.9293  -0.9193  -0.9099  -0.8153  -0.8072  -0.7536
    -0.7454  -0.7055  -0.6958  -0.6633  -0.5585  -0.5564  -0.0910  -0.0711
     0.9481   0.9494   1.1342   1.1345   1.3643   1.3650   1.3859   1.3861
     1.4616   1.4617   1.4780   1.4781   1.6195   1.6204   1.6295   1.6341
     1.8559   1.8580   1.8631   1.8639   2.0348   2.0377   2.0735   2.0758
     2.1657   2.1671   2.2978   2.2987   2.3213   2.3218   2.3535   2.3538
     2.3920   2.3937   2.4049   2.4068   2.5132   2.5154   2.6816   2.6875
     2.7383   2.7413   2.7599   2.7629   2.9549   2.9578   2.9759   2.9768
     3.0464   3.0469   3.1412   3.1478   3.2646   3.2661   3.3267   3.3274
     3.3601   3.3621   3.4564   3.4586   3.5575   3.5632   3.6096   3.6108
     3.6734   3.6773   3.7504   3.7561   3.8069   3.8097   3.8444   3.8477
     3.8811   3.8815   3.9082   3.9202   3.9398   3.9462   4.0681   4.0817
     4.0876   4.0920   4.2145   4.2233   4.2309   4.2590   4.2721   4.2835
     4.2969   4.2998   4.3007   4.3170   4.3790   4.4002   4.4087   4.4127
     4.4166   4.4204   4.5450   4.5487   4.5495   4.5680   4.6167   4.6179
     4.6364   4.6369   4.7485   4.7652   4.9252   4.9291   4.9317   4.9343
     4.9366   4.9553   5.0001   5.0124   5.0552   5.0577   5.0741   5.0768
     5.1234   5.1254   5.2073   5.2334   5.2813   5.2824   5.2937   5.2960
     5.3755   5.3769   5.4048   5.4263   5.4609   5.4630   5.5021   5.5165
     5.5261   5.5304   5.5361   5.5649   5.6437   5.6468   5.6832   5.6840
     5.7017   5.7059   5.7125   5.7258   5.7780   5.7858   5.8122   5.8164
     5.8254   5.8362   5.8500   5.8529   5.9026   5.9209   5.9419   5.9434
     5.9781   5.9905   6.0161   6.0323   6.0938   6.1011   6.1084   6.1158
     6.1164   6.1229   6.1333   6.1378   6.1484   6.1519   6.2809   6.2819
     6.2849   6.2922   6.3265   6.3286   6.3649   6.3678   6.3842   6.3866
     6.4012   6.4060   6.4347   6.4352   6.5530   6.5568   6.5603   6.5611
     6.5942   6.6000   6.6513   6.6534   6.7936   6.7999   6.8051   6.8856

          k =-0.2500 0.4330 0.0000 (108308 PWs)   bands (ev):

   -67.0637 -67.0517 -67.0517 -67.0279 -67.0198 -67.0155 -67.0103 -67.0074
   -67.0072 -67.0052 -67.0049 -66.9990 -66.9988 -66.9956 -66.9941 -66.9916
   -66.9877 -66.9823 -66.9799 -66.9795 -66.9771 -66.9765 -66.9754 -66.9746
   -66.8134 -66.8046 -66.8045 -66.7879 -66.7813 -66.7750 -66.7718 -66.7717
   -66.7680 -66.7675 -66.7657 -66.7649 -66.7265 -66.7088 -66.7040 -66.6967
   -66.6816 -66.6710 -66.6592 -66.6582 -66.6564 -66.6551 -66.6528 -66.6504
   -38.8678 -38.8564 -38.8553 -38.8337 -38.7379 -38.7376 -38.7321 -38.7274
   -38.7129 -38.7053 -38.7020 -38.7011 -38.6699 -38.6607 -38.6604 -38.6209
   -38.6148 -38.6032 -38.6029 -38.5975 -38.5959 -38.5788 -38.5772 -38.5639
   -38.5290 -38.5283 -38.5273 -38.5162 -38.4922 -38.4451 -38.4445 -38.4442
   -38.4359 -38.4322 -38.4227 -38.4205 -38.4196 -38.4136 -38.4132 -38.4046
   -38.3981 -38.3917 -38.3908 -38.3899 -38.3732 -38.3674 -38.3666 -38.3457
   -38.3447 -38.3413 -38.3403 -38.3361 -38.3319 -38.3291 -38.3259 -38.3256
   -38.3230 -38.3196 -38.3169 -38.3114 -38.3083 -38.3067 -38.3060 -38.2731
   -38.2726 -38.2678 -38.2667 -38.2600 -38.2585 -38.2570 -38.2545 -38.2476
   -38.2453 -38.2410 -38.2400 -38.2385 -38.2143 -38.2083 -38.2072 -38.2002
   -38.1985 -38.1973 -38.1963 -38.1920 -38.1861 -38.1688 -38.1587 -38.1566
   -38.1532 -38.1487 -38.1360 -38.1353 -38.1325 -38.1270 -38.1258 -38.1210
   -38.1121 -38.1011 -38.0998 -38.0962 -38.0914 -38.0782 -38.0774 -38.0730
   -38.0583 -38.0473 -38.0459 -38.0417 -38.0330 -38.0300 -38.0233 -38.0184
   -38.0163 -38.0116 -38.0106 -38.0053 -37.9931 -37.9907 -37.9904 -37.9869
   -37.9828 -37.9811 -37.9730 -37.9727 -37.9477 -37.9471 -37.9359 -37.9348
   -37.9332 -37.9238 -37.9236 -37.9161 -37.8991 -37.8888 -37.8854 -37.8849
   -37.7693 -37.7678 -37.7618 -37.7555 -37.7498 -37.7422 -37.7408 -37.7339
   -12.3910 -12.1781 -12.1772 -11.9839 -11.8501 -11.8482 -11.8004 -11.6329
   -11.6072 -11.4968 -11.4779 -11.4771 -11.4617 -11.3968 -11.2857 -11.2830
   -11.2624 -11.2618 -11.1729 -11.1543  -8.7946  -8.7671  -8.7671  -8.7455
    -7.8246  -3.0585  -2.9607  -2.9587  -2.9426  -2.8312  -2.8297  -2.7886
    -2.7537  -2.7021  -2.6887  -2.6661  -2.6646  -2.6202  -2.4293  -2.2973
    -2.2931  -2.2815  -2.2578  -2.2042  -2.2016  -2.1600  -2.1574  -2.0311
    -1.8562  -1.8487  -1.7692  -1.7418  -1.6544  -1.6021  -1.5989  -1.5218
    -1.4974  -1.4783  -1.4494  -1.4449  -1.4407  -1.4395  -1.3801  -1.2617
    -1.2611  -1.2167  -1.2157  -1.1944  -1.1481  -1.0358  -1.0107  -1.0095
    -0.9567  -0.9465  -0.9384  -0.9186  -0.8879  -0.8828  -0.8290  -0.8279
    -0.7396  -0.6880  -0.6364  -0.6266  -0.6154  -0.5295  -0.0911  -0.0709
     0.8820   1.0660   1.0664   1.1669   1.3512   1.3675   1.3679   1.3702
     1.4137   1.4951   1.4953   1.5223   1.5883   1.6072   1.6081   1.6649
     1.7834   1.9020   1.9029   1.9908   1.9919   2.0551   2.0562   2.1141
     2.1210   2.1820   2.1833   2.2150   2.2891   2.2946   2.3299   2.3302
     2.3814   2.4307   2.4976   2.5229   2.5249   2.6076   2.6094   2.7250
     2.7273   2.7309   2.7627   2.7675   2.8654   2.8688   2.8703   2.9360
     3.1177   3.1809   3.2250   3.2286   3.2726   3.2731   3.2791   3.3659
     3.3703   3.3714   3.3880   3.4956   3.5158   3.5163   3.5860   3.6435
     3.6566   3.6895   3.6939   3.7246   3.7266   3.7834   3.8058   3.8221
     3.9648   3.9706   3.9873   4.0009   4.0059   4.0130   4.0192   4.0538
     4.0798   4.1132   4.1364   4.1733   4.1799   4.2303   4.2404   4.2655
     4.2958   4.3007   4.3348   4.3393   4.3693   4.3780   4.3998   4.4056
     4.4980   4.5001   4.5228   4.5331   4.5402   4.5430   4.5647   4.6121
     4.6665   4.7978   4.7989   4.8197   4.8235   4.8316   4.8445   4.8456
     4.8922   4.9209   4.9791   4.9963   5.0594   5.0737   5.0997   5.1041
[...]
     6.5861   6.6303   6.6571   6.6612   6.6691   6.7286   6.7818   6.7853

          k = 0.5000-0.0000 0.0000 (108308 PWs)   bands (ev):

   -67.0773 -67.0657 -67.0655 -67.0427 -67.0350 -67.0266 -67.0260 -67.0214
   -67.0211 -67.0182 -67.0180 -67.0158 -67.0155 -67.0125 -67.0115 -67.0019
   -66.9974 -66.9916 -66.9887 -66.9883 -66.9853 -66.9851 -66.9832 -66.9828
   -66.8346 -66.8267 -66.8266 -66.8157 -66.7894 -66.7850 -66.7842 -66.7839
   -66.7792 -66.7791 -66.7783 -66.7765 -66.7294 -66.7227 -66.7208 -66.7126
   -66.6798 -66.6774 -66.6739 -66.6727 -66.6694 -66.6689 -66.6676 -66.6660
   -38.8695 -38.8571 -38.8565 -38.8357 -38.7431 -38.7429 -38.7368 -38.7316
   -38.7199 -38.7167 -38.7155 -38.7152 -38.6813 -38.6687 -38.6686 -38.6315
   -38.6273 -38.6204 -38.6203 -38.6169 -38.6059 -38.6020 -38.6016 -38.5970
   -38.5412 -38.5403 -38.5402 -38.5343 -38.5256 -38.5178 -38.5170 -38.5166
   -38.5037 -38.4440 -38.4410 -38.4397 -38.4393 -38.4268 -38.4263 -38.4150
   -38.4124 -38.4084 -38.4080 -38.4033 -38.3877 -38.3796 -38.3789 -38.3750
   -38.3749 -38.3707 -38.3677 -38.3654 -38.3557 -38.3553 -38.3491 -38.3474
   -38.3400 -38.3388 -38.3331 -38.3233 -38.3227 -38.3184 -38.3181 -38.2897
   -38.2894 -38.2866 -38.2855 -38.2850 -38.2743 -38.2738 -38.2704 -38.2565
   -38.2547 -38.2532 -38.2529 -38.2502 -38.2291 -38.2228 -38.2223 -38.2142
   -38.2130 -38.2111 -38.2110 -38.2042 -38.1999 -38.1786 -38.1782 -38.1769
   -38.1501 -38.1486 -38.1418 -38.1413 -38.1364 -38.1354 -38.1327 -38.1324
   -38.1105 -38.1039 -38.0984 -38.0966 -38.0960 -38.0818 -38.0811 -38.0810
   -38.0645 -38.0492 -38.0473 -38.0455 -38.0344 -38.0340 -38.0270 -38.0263
   -38.0213 -38.0206 -38.0193 -38.0085 -38.0042 -38.0011 -38.0008 -37.9997
   -37.9973 -37.9966 -37.9916 -37.9914 -37.9534 -37.9532 -37.9475 -37.9421
   -37.9400 -37.9311 -37.9309 -37.9231 -37.9092 -37.9047 -37.9042 -37.9038
   -37.7791 -37.7779 -37.7753 -37.7659 -37.7624 -37.7526 -37.7523 -37.7458
   -12.3566 -12.1427 -12.1414 -11.9562 -11.8138 -11.8119 -11.7735 -11.6106
   -11.5316 -11.4709 -11.4506 -11.4501 -11.3892 -11.3781 -11.2651 -11.2596
   -11.1749 -11.1728 -11.1522 -11.0565  -9.3368  -9.2877  -9.2873  -9.2480
    -7.0061  -3.0345  -2.9306  -2.9295  -2.9108  -2.7964  -2.7961  -2.7461
    -2.7183  -2.6604  -2.6557  -2.6260  -2.6248  -2.5774  -2.4022  -2.2606
    -2.2539  -2.2536  -2.2048  -2.1671  -2.1656  -2.1198  -2.1181  -1.9914
    -1.8072  -1.8036  -1.7267  -1.7048  -1.6359  -1.5664  -1.5657  -1.4954
    -1.4472  -1.4419  -1.4158  -1.4150  -1.4109  -1.4000  -1.3366  -1.2209
    -1.2185  -1.1756  -1.1743  -1.1429  -1.0962  -0.9931  -0.9837  -0.9834
    -0.9282  -0.9164  -0.8922  -0.8778  -0.8634  -0.8617  -0.7687  -0.7636
    -0.6962  -0.5881  -0.5756  -0.5712  -0.4326   0.4973   0.5778   0.5816
     0.6680   0.7233   0.7240   0.7618   0.9576   0.9609   1.0056   1.0086
     1.0089   1.0674   1.0732   1.0743   1.2714   1.4104   1.4128   1.6123
     1.7684   1.8761   1.8766   1.9076   1.9783   1.9810   1.9926   1.9937
     2.0800   2.1595   2.1618   2.2289   2.3025   2.3035   2.3360   2.3385
     2.3785   2.4372   2.4939   2.5051   2.5078   2.5968   2.5972   2.6528
     2.7228   2.7243   2.7348   2.7600   2.8368   2.8382   2.8545   2.9409
     3.0836   3.1704   3.2159   3.2185   3.2625   3.2642   3.2842   3.3564
     3.3642   3.3661   3.3758   3.4672   3.4681   3.4824   3.5693   3.6346
     3.6403   3.6700   3.6743   3.7034   3.7069   3.7726   3.7751   3.7888
     3.9559   3.9571   3.9615   3.9859   3.9887   4.0032   4.0043   4.0381
     4.0657   4.1219   4.1368   4.1519   4.1548   4.2182   4.2214   4.2240
     4.2604   4.2639   4.3094   4.3370   4.3577   4.3597   4.3786   4.3819
     4.4742   4.4758   4.4980   4.5111   4.5190   4.5223   4.5361   4.5862
     4.6161   4.7585   4.7764   4.7790   4.8167   4.8202   4.8436   4.8541
     4.8806   4.9520   4.9665   4.9719   5.0501   5.0542   5.0934   5.1112
     5.1143   5.1773   5.2165   5.2430   5.2632   5.2667   5.2986   5.3465
     5.3629   5.3646   5.3701   5.4051   5.4157   5.4385   5.4405   5.5224
     5.5246   5.5299   5.5563   5.6516   5.6577   5.6582   5.6590   5.6720
     5.7027   5.7046   5.7064   5.7234   5.7387   5.7893   5.7926   5.7940
     5.8013   5.8143   5.8334   5.8498   5.8509   5.8872   5.9131   5.9601
     5.9618   5.9783   5.9976   6.0036   6.0269   6.0290   6.0477   6.1144
     6.1156   6.1309   6.1598   6.1608   6.1898   6.2198   6.2263   6.2425
     6.2789   6.2821   6.2883   6.2969   6.3826   6.3939   6.3959   6.4389
     6.4423   6.4433   6.4881   6.4892   6.5298   6.5690   6.5816   6.5855
     6.5861   6.6300   6.6573   6.6611   6.6691   6.7286   6.7821   6.7852

     the Fermi energy is     5.1200 ev

!    total energy              =  -12616.46602177 Ry
     total all-electron energy =   -103594.969829 Ry
     estimated scf accuracy    <          3.2E-11 Ry
     smearing contrib. (-TS)   =       0.00928224 Ry
     internal energy E=F+TS    =  -12616.47530401 Ry

     The total energy is F=E-TS. E is the sum of the following terms:
     one-electron contribution =  -66910.13830523 Ry
     hartree contribution      =   33566.77381931 Ry
     xc contribution           =   -1216.02849382 Ry
     ewald contribution        =   25705.27815784 Ry
     DFT-D3 Dispersion         =      -1.07830281 Ry
     one-center paw contrib.   =   -3761.28217930 Ry

     convergence has been achieved in  40 iterations

     negative rho (up, down):  1.573E-04 0.000E+00

     Forces acting on atoms (cartesian axes, Ry/au):

     atom    1 type  1   force =    -0.00006999    0.00012696    0.00012209
     atom    2 type  1   force =     0.00015184    0.00001079    0.00012736
     atom    3 type  1   force =    -0.00008476   -0.00015603    0.00004313
     atom    4 type  1   force =     0.00001922    0.00004117    0.00042546
     atom    5 type  1   force =     0.00007251    0.00008318    0.00019224
     atom    6 type  1   force =     0.00004740    0.00009603    0.00020365
     atom    7 type  2   force =     0.00017993    0.00028604   -0.00018673
     atom    8 type  2   force =     0.00008794    0.00006788   -0.00000329
     atom    9 type  2   force =     0.00001210    0.00009963    0.00000076
     atom   10 type  1   force =     0.00013232   -0.00029140   -0.00007836
     atom   11 type  1   force =    -0.00033557   -0.00004944   -0.00009907
     atom   12 type  1   force =     0.00001302    0.00003719    0.00020346
     atom   13 type  1   force =     0.00003464    0.00008252    0.00002935
     atom   14 type  1   force =     0.00008248    0.00008305   -0.00045085
     atom   15 type  1   force =     0.00001732    0.00010176   -0.00045170
     atom   16 type  2   force =    -0.00018142   -0.00029767    0.00028371
     atom   17 type  2   force =    -0.00009605   -0.00011169   -0.00010122
     atom   18 type  2   force =    -0.00006125   -0.00012707   -0.00011062
     atom   19 type  1   force =    -0.00017883   -0.00018990   -0.00000953
     atom   20 type  1   force =     0.00022280    0.00016351    0.00015830
     atom   21 type  1   force =     0.00012835    0.00002451    0.00019296
     atom   22 type  1   force =    -0.00001787    0.00004280   -0.00002073
     atom   23 type  1   force =     0.00016779   -0.00010516    0.00001913
     atom   24 type  1   force =    -0.00010643   -0.00001870    0.00025118
     atom   25 type  2   force =     0.00016245   -0.00000739   -0.00024915
     atom   26 type  2   force =    -0.00002043    0.00006215   -0.00023620
     atom   27 type  2   force =    -0.00000812   -0.00004175   -0.00018510
     atom   28 type  1   force =    -0.00011135    0.00008451   -0.00002228
     atom   29 type  1   force =    -0.00030983   -0.00016148    0.00005840
     atom   30 type  1   force =     0.00007907    0.00031964   -0.00005614
     atom   31 type  1   force =     0.00032947   -0.00002170   -0.00014246
     atom   32 type  1   force =    -0.00021592   -0.00008740   -0.00013419
     atom   33 type  1   force =     0.00011876    0.00019781   -0.00010039
     atom   34 type  2   force =    -0.00000981    0.00011162    0.00041584
     atom   35 type  2   force =     0.00010383    0.00014369    0.00001919
     atom   36 type  2   force =    -0.00010571    0.00002620   -0.00041857
     atom   37 type  1   force =     0.00003627    0.00028197    0.00016470
     atom   38 type  1   force =    -0.00007035   -0.00024211   -0.00001835
     atom   39 type  1   force =    -0.00003765    0.00012673    0.00018881
     atom   40 type  1   force =     0.00005403    0.00000804   -0.00002916
     atom   41 type  1   force =     0.00003961   -0.00010463    0.00023828
     atom   42 type  1   force =    -0.00017013    0.00008609    0.00001017
     atom   43 type  2   force =    -0.00008305    0.00011826   -0.00025054
     atom   44 type  2   force =    -0.00002636   -0.00003298   -0.00020452
     atom   45 type  2   force =     0.00006027    0.00001648   -0.00025472
     atom   46 type  1   force =    -0.00004451   -0.00027043   -0.00000137
     atom   47 type  1   force =     0.00011643   -0.00004114   -0.00002415
     atom   48 type  1   force =     0.00021468    0.00021470   -0.00004427
     atom   49 type  1   force =    -0.00015850    0.00025950   -0.00013939
     atom   50 type  1   force =     0.00011585    0.00019545   -0.00005837
     atom   51 type  1   force =     0.00001707   -0.00023158   -0.00012594
     atom   52 type  2   force =     0.00010033    0.00005238    0.00041559
     atom   53 type  2   force =     0.00006677   -0.00007236   -0.00039898
     atom   54 type  2   force =     0.00008046    0.00017477    0.00005390
     atom   55 type  1   force =     0.00008173    0.00011490   -0.00007483
     atom   56 type  1   force =     0.00006302    0.00011548   -0.00007762
     atom   57 type  1   force =    -0.00014165   -0.00024713   -0.00041427
     atom   58 type  1   force =     0.00018449    0.00030215   -0.00005630
     atom   59 type  1   force =    -0.00006465   -0.00008866    0.00003680
     atom   60 type  1   force =    -0.00005008   -0.00009112    0.00002646
     atom   61 type  2   force =    -0.00011875   -0.00019368    0.00001128
     atom   62 type  2   force =     0.00000877    0.00000441   -0.00062220
     atom   63 type  2   force =     0.00001279    0.00001205   -0.00063121
     atom   64 type  1   force =    -0.00010881   -0.00005803    0.00048336
     atom   65 type  1   force =     0.00003033   -0.00011022    0.00048173
     atom   66 type  1   force =    -0.00031318   -0.00051411    0.00028046
     atom   67 type  1   force =    -0.00011183   -0.00018176    0.00010199
     atom   68 type  1   force =     0.00007528   -0.00003999    0.00004319
     atom   69 type  1   force =    -0.00004745    0.00004741    0.00003701
     atom   70 type  2   force =     0.00010581    0.00018535    0.00058705
     atom   71 type  2   force =     0.00006725   -0.00016731    0.00032489
     atom   72 type  2   force =    -0.00018942   -0.00001745    0.00030664
     atom   73 type  3   force =     0.00015034   -0.00025461   -0.00056828
     atom   74 type  4   force =    -0.00015028   -0.00005407   -0.00058851
     atom   75 type  4   force =    -0.00058212    0.00022835    0.00039929
     atom   76 type  4   force =    -0.00002354   -0.00035200    0.00034873
     atom   77 type  4   force =     0.00056084    0.00019500    0.00035300

     Total force =     0.003059     Total SCF correction =     0.000033
     Energy error            =      2.7E-05 Ry
     Gradient error          =      6.3E-04 Ry/Bohr

     bfgs converged in  35 scf cycles and  34 bfgs steps
     (criteria: energy <  1.0E-04 Ry, force <  1.0E-03 Ry/Bohr)

     End of BFGS Geometry Optimization

     Final energy             =  -12616.4660217714 Ry

     File tmp/CH4-H13_Rot60_bridge_/CH4-H13_Rot60_bridge_.bfgs deleted, as requested
Begin final coordinates

ATOMIC_POSITIONS (angstrom)
Cr              -1.5877971198        2.7747015151        8.1772673287
Cr               3.1983531427        0.0112142522        8.1771068462
Cr               0.7867428064        1.3609098374        8.1768361041
Cr               1.6371243610        2.8337977614        6.0448584446
Cr              -0.7405117096        1.2988939195        6.0476758952
Cr               1.4964914839        0.0073583841        6.0474898787
N                0.0031831157        0.0041317306        5.0078663477
N                2.3809870373        1.3806535296        7.0310884704
N                0.0067631456        2.7515322446        7.0311228581
Cr              -1.6416407317        2.8653636488       12.4533857573
Cr               3.3044048670        0.0101804631       12.4536130286
Cr               0.7323722436        1.2668717050       12.4508328988
Cr               1.6013536901        2.7714027980       10.3781846975
Cr              -0.7738719742        1.3631742829       10.3774733875
Cr               1.5691704731        0.0103382930       10.3776672068
N                0.0093180078        0.0140755031        9.2627349677
N                2.3827669564        1.3824509401       11.5004011811
N                0.0076179269        2.7538824973       11.5002630832
Cr              -3.9633257154        6.8918508004        8.1808327409
Cr               0.8228126876        4.1213143767        8.1772392869
Cr              -1.5903589554        5.4734003477        8.1780533482
Cr              -0.7386628359        6.9465661132        6.0501861197
Cr              -3.1169797818        5.4160777008        6.0518822737
Cr              -0.8785070492        4.1247339650        6.0473869096
N               -2.3723143010        4.1251632624        5.0083546347
N                0.0065855705        5.4943206689        7.0368090264
N               -2.3686206255        6.8677373365        7.0362660362
Cr              -4.0158002408        6.9730849700       12.4529149927
Cr               0.9243470973        4.1277275749       12.4534571728
Cr              -1.6397891671        5.3858695971       12.4538251436
Cr              -0.7770018228        6.8870688802       10.3742298698
Cr              -3.1454358253        5.4789336798       10.3726187858
Cr              -0.8069044383        4.1227301220       10.3754680833
N               -2.3673993674        4.1227934337        9.2620975017
N                0.0052865046        5.4964029944       11.4941488407
N               -2.3686684331        6.8684957078       11.4982621992
Cr               3.1591038520        2.7723134603        8.1772374943
Cr               7.9517699425        0.0125572293        8.1809675168
Cr               5.5367394149        1.3585163890        8.1782681952
Cr               6.3866800469        2.8326133268        6.0504646698
Cr               4.0129213905        1.3008120812        6.0475256166
Cr               6.2504930340        0.0079245647        6.0520590104
N                4.7602966113        0.0075369707        5.0083714619
N                7.1334737867        1.3817360552        7.0367005133
N                4.7564477640        2.7520370038        7.0371726340
Cr               3.1147831091        2.8622402573       12.4543209829
Cr               8.0484284437        0.0079486811       12.4527674439
Cr               5.4860557627        1.2721447637       12.4535625315
Cr               6.3544257120        2.7698395883       10.3740913821
Cr               3.9752189687        1.3616222709       10.3751687131
Cr               6.3192671105        0.0142754105       10.3723549349
N                4.7555431444        0.0100765628        9.2620898348
N                7.1342559596        1.3819050638       11.4976662204
N                4.7587887501        2.7517578497       11.4937084147
Cr               0.7835790742        6.8876425885        8.1813134726
Cr               5.5746271260        4.1217581479        8.1814316160
Cr               3.1615361940        5.4741854002        8.1832577768
Cr               4.0105332906        6.9448616122        6.0542356226
Cr               1.6376614501        5.4176518689        6.0521202943
Cr               3.8745565107        4.1261379203        6.0522487065
N                2.3848395373        4.1287374219        5.0076745848
N                4.7583611048        5.4958608088        7.0436423873
N                2.3817777293        6.8678859853        7.0437030541
Cr               0.7368204424        6.9773800682       12.4481490063
Cr               5.6752753966        4.1255851338       12.4483232454
Cr               3.1182147231        5.3990586997       12.4460204454
Cr               3.9782598754        6.8884750100       10.3715302796
Cr               1.5993082810        5.4757243869       10.3728442239
Cr               3.9437821222        4.1219361673       10.3729478869
N                2.3802856319        4.1210932431        9.2614939858
N                4.7603176026        5.4961236435       11.4865908237
N                2.3814570992        6.8696429325       11.4865966165
C                1.9144525889        3.3422761746       16.3374125370
H                1.7412526915        3.3770084249       15.2518378653
H                2.8575053703        2.8168535273       16.5291519790
H                1.9739475222        4.3663955109       16.7229279730
H                1.0850528287        2.8086212667       16.8155694484
End final coordinates



     Writing all to output data dir tmp/CH4-H13_Rot60_bridge_/CH4-H13_Rot60_bridge_.save/ :
     XML data file, charge density, pseudopotentials, collected wavefunctions
 
     init_run     :     18.67s CPU     19.43s WALL (       1 calls)
     electrons    :  60016.86s CPU  61365.63s WALL (      35 calls)
     update_pot   :     43.33s CPU     45.14s WALL (      34 calls)
     forces       :    357.55s CPU    369.87s WALL (      35 calls)
     force_dftd3  :      7.72s CPU      8.16s WALL (      35 calls)

     Called by init_run:
     wfcinit      :     14.41s CPU     14.77s WALL (       1 calls)
     potinit      :      1.02s CPU      1.17s WALL (       1 calls)
     hinit0       :      0.34s CPU      0.40s WALL (       1 calls)

     Called by electrons:
     c_bands      :  49423.85s CPU  50237.98s WALL (    1506 calls)
     sum_band     :   8347.05s CPU   8611.61s WALL (    1506 calls)
     v_of_rho     :    871.64s CPU    932.92s WALL (    1527 calls)
     newd         :    655.57s CPU    840.98s WALL (    1527 calls)
     PAW_pot      :    554.36s CPU    559.98s WALL (    1561 calls)
     mix_rho      :    121.14s CPU    130.18s WALL (    1506 calls)
     energy_dftd3 :      4.11s CPU      4.12s WALL (      35 calls)

     Called by c_bands:
     init_us_2    :    862.22s CPU    869.07s WALL (    9246 calls)
     cegterg      :  46367.46s CPU  47165.81s WALL (    4518 calls)

     Called by *egterg:
     cdiaghg      :   1613.59s CPU   1624.51s WALL (   15579 calls)
     h_psi        :  22745.75s CPU  23082.50s WALL (   15726 calls)
     s_psi        :   5350.98s CPU   5384.74s WALL (   15726 calls)
     g_psi        :    103.11s CPU    103.94s WALL (   11205 calls)

     Called by h_psi:
     h_psi:calbec :   5409.96s CPU   5443.84s WALL (   15726 calls)
     vloc_psi     :  11784.73s CPU  11926.13s WALL (   15726 calls)
                                        0.00s GPU  (   15726 calls)
     add_vuspsi   :   5363.92s CPU   5396.45s WALL (   15726 calls)

     General routines
     calbec       :   8202.33s CPU   8253.46s WALL (   20766 calls)
     fft          :    685.02s CPU    741.80s WALL (   20214 calls)
     ffts         :      9.73s CPU     11.13s WALL (    3033 calls)
     fftw         :  11390.15s CPU  11523.77s WALL (11318970 calls)
     interpolate  :     50.07s CPU     55.67s WALL (    1527 calls)
 
     Parallel routines
 
     PWSCF        :     16h48m CPU     17h11m WALL

 
   This run was terminated on:   9:55: 3   3Jun2026            

=------------------------------------------------------------------------------=
   JOB DONE.
=------------------------------------------------------------------------------=
