
     Program PWSCF v.7.5 starts on 15May2026 at  4:43:20 

     This program is part of the open-source Quantum ESPRESSO suite
     for quantum simulation of materials; please cite
         "P. Giannozzi et al., J. Phys.:Condens. Matter 21 395502 (2009);
         "P. Giannozzi et al., J. Phys.:Condens. Matter 29 465901 (2017);
         "P. Giannozzi et al., J. Chem. Phys. 152 154105 (2020);
          URL http://www.quantum-espresso.org", 
     in publications or presentations arising from this work. More details at
     http://www.quantum-espresso.org/quote

     Parallel version (MPI & OpenMP), running on      64 processor cores
     Number of MPI processes:                64
     Threads/MPI process:                     1

     MPI processes distributed on     1 nodes
     166791 MiB available memory on the printing compute node when the environment starts
 
     Reading input from pw-CH4-H22_Rot90_ontop__restart.in
Warning: card &CELL ignored

     Current dimensions of program PWSCF are:
     Max number of different atomic species (ntypx) = 10
     Max number of k-points (npk) =  40000
     Max angular momentum in pseudopotentials (lmaxx) =  4
     file Cr.pbe-spn-kjpaw_psl.1.0.0.UPF: wavefunction(s)  3S 3P 3D renormalized
     file N.pbe-n-kjpaw_psl.1.0.0.UPF: wavefunction(s)  2S renormalized
     file C.pbe-n-kjpaw_psl.1.0.0.UPF: wavefunction(s)  2S 2P renormalized
     file H.pbe-kjpaw_psl.1.0.0.UPF: wavefunction(s)  1S renormalized
 
     K-points division:     npool     =       4
     R & G space division:  proc/nbgrp/npool/nimage =      16
     Subspace diagonalization in iterative solution of the eigenvalue problem:
     one sub-group per band group will be used
     scalapack distributed-memory algorithm (size of sub-group:  4*  4 procs)

 
     Parallelization info
     --------------------
     sticks:   dense  smooth     PW     G-vecs:    dense   smooth      PW
     Min        1166     388    102               281408    54158    7274
     Max        1167     389    103               281417    54165    7281
     Sum       18661    6217   1639              4502593   866593  116429
 
     Using Slab Decomposition
 


     bravais-lattice index     =            0
     lattice parameter (alat)  =      17.9576  a.u.
     unit-cell volume          =   10952.5767 (a.u.)^3
     number of atoms/cell      =           77
     number of atomic types    =            4
     number of electrons       =       800.00
     number of Kohn-Sham states=          480
     kinetic-energy cutoff     =      70.0000  Ry
     charge density cutoff     =     840.0000  Ry
     scf convergence threshold =      1.0E-08
     mixing beta               =       0.2000
     number of iterations used =            8  plain     mixing
     energy convergence thresh.=      1.0E-04
     force convergence thresh. =      1.0E-03
     Exchange-correlation= SLA  PW   PBX  PBC
                           (   1   4   3   4   0   0   0)
     nstep                     =          200


     celldm(1)=  17.957575  celldm(2)=   0.000000  celldm(3)=   0.000000
     celldm(4)=   0.000000  celldm(5)=   0.000000  celldm(6)=   0.000000

     crystal axes: (cart. coord. in units of alat)
               a(1) = (   1.000000   0.000000   0.000000 )  
               a(2) = (  -0.500000   0.866025   0.000000 )  
               a(3) = (   0.000000   0.000000   2.183951 )  

     reciprocal axes: (cart. coord. in units 2 pi/alat)
               b(1) = (  1.000000  0.577351  0.000000 )  
               b(2) = (  0.000000  1.154701  0.000000 )  
               b(3) = (  0.000000  0.000000  0.457886 )  


     PseudoPot. # 1 for Cr read from file:
     /home/tomas.rojas_s/pseudo/Cr.pbe-spn-kjpaw_psl.1.0.0.UPF
     MD5 check sum: 198f1a2427a48552563eee314eba32ba
     Pseudo is Projector augmented-wave + core cor, Zval = 14.0
     Generated using &quot;atomic&quot; code by A. Dal Corso  v.6.3
     Shape of augmentation charge: PSQ
     Using radial grid of 1183 points,  6 beta functions with: 
                l(1) =   0
                l(2) =   0
                l(3) =   1
                l(4) =   1
                l(5) =   2
                l(6) =   2
     Q(r) pseudized with 0 coefficients 


     PseudoPot. # 2 for N  read from file:
     /home/tomas.rojas_s/pseudo/N.pbe-n-kjpaw_psl.1.0.0.UPF
     MD5 check sum: 14c48229446f9f2d411169a3abcbc3fa
     Pseudo is Projector augmented-wave + core cor, Zval =  5.0
     Generated using &quot;atomic&quot; code by A. Dal Corso  v.6.3
     Shape of augmentation charge: PSQ
     Using radial grid of 1085 points,  4 beta functions with: 
                l(1) =   0
                l(2) =   0
                l(3) =   1
                l(4) =   1
     Q(r) pseudized with 0 coefficients 


     PseudoPot. # 3 for C  read from file:
     /home/tomas.rojas_s/pseudo/C.pbe-n-kjpaw_psl.1.0.0.UPF
     MD5 check sum: 5f16ad9a65e90284d1d834d4ab3b0f7d
     Pseudo is Projector augmented-wave + core cor, Zval =  4.0
     Generated using &quot;atomic&quot; code by A. Dal Corso  v.6.3
     Shape of augmentation charge: PSQ
     Using radial grid of 1073 points,  4 beta functions with: 
                l(1) =   0
                l(2) =   0
                l(3) =   1
                l(4) =   1
     Q(r) pseudized with 0 coefficients 


     PseudoPot. # 4 for H  read from file:
     /home/tomas.rojas_s/pseudo/H.pbe-kjpaw_psl.1.0.0.UPF
     MD5 check sum: d81a744832360e4a8af0b0b5b123bc2a
     Pseudo is Projector augmented-wave, Zval =  1.0
     Generated using &quot;atomic&quot; code by A. Dal Corso  v.6.3MaX
     Shape of augmentation charge: PSQ
     Using radial grid of  929 points,  2 beta functions with: 
                l(1) =   0
                l(2) =   0
     Q(r) pseudized with 0 coefficients 


     atomic species   valence    mass     pseudopotential
     Cr               14.00    51.99610     Cr( 1.00)
     N                 5.00    14.00670     N ( 1.00)
     C                 4.00    12.01100     C ( 1.00)
     H                 1.00     1.00800     H ( 1.00)

     No symmetry found



   Cartesian axes

     site n.     atom                  positions (alat units)
         1        Cr     tau(   1) = (  -0.1689555   0.2882953   0.8663025  )
         2        Cr     tau(   2) = (   0.3350259  -0.0027098   0.8661436  )
         3        Cr     tau(   3) = (   0.0815522   0.1395294   0.8663240  )
         4        Cr     tau(   4) = (   0.1710523   0.2949732   0.6434594  )
         5        Cr     tau(   5) = (  -0.0794672   0.1328384   0.6436338  )
         6        Cr     tau(   6) = (   0.1552224  -0.0026590   0.6431945  )
         7        N      tau(   7) = (  -0.0015600  -0.0025805   0.5335403  )
         8        N      tau(   8) = (   0.2490960   0.1434543   0.7450663  )
         9        N      tau(   9) = (  -0.0007898   0.2861572   0.7454722  )
        10        Cr     tau(  10) = (  -0.1752622   0.2970536   1.3152719  )
        11        Cr     tau(  11) = (   0.3453429  -0.0027045   1.3165763  )
        12        Cr     tau(  12) = (   0.0735957   0.1267977   1.3147609  )
        13        Cr     tau(  13) = (   0.1664262   0.2877851   1.0973251  )
        14        Cr     tau(  14) = (  -0.0833065   0.1399357   1.0974687  )
        15        Cr     tau(  15) = (   0.1631215  -0.0030743   1.0971698  )
        16        N      tau(  16) = (  -0.0008402  -0.0025473   0.9803653  )
        17        N      tau(  17) = (   0.2481215   0.1410756   1.2151199  )
        18        N      tau(  18) = (   0.0009453   0.2877984   1.2165586  )
        19        Cr     tau(  19) = (  -0.4187927   0.7215922   0.8663336  )
        20        Cr     tau(  20) = (   0.0849170   0.4306759   0.8664332  )
        21        Cr     tau(  21) = (  -0.1688914   0.5730010   0.8662277  )
        22        Cr     tau(  22) = (  -0.0790556   0.7283793   0.6436047  )
        23        Cr     tau(  23) = (  -0.3290694   0.5660003   0.6435437  )
        24        Cr     tau(  24) = (  -0.0944976   0.4305667   0.6435161  )
        25        N      tau(  25) = (  -0.2507375   0.4306461   0.5337259  )
        26        N      tau(  26) = (  -0.0008922   0.5748393   0.7454877  )
        27        N      tau(  27) = (  -0.2509951   0.7192310   0.7453599  )
        28        Cr     tau(  28) = (  -0.4240746   0.7314671   1.3175482  )
        29        Cr     tau(  29) = (   0.0875227   0.4314105   1.3278227  )
        30        Cr     tau(  30) = (  -0.1762371   0.5628381   1.3141287  )
        31        Cr     tau(  31) = (  -0.0836834   0.7218387   1.0967967  )
        32        Cr     tau(  32) = (  -0.3331987   0.5728363   1.0972699  )
        33        Cr     tau(  33) = (  -0.0858368   0.4303754   1.0973880  )
        34        N      tau(  34) = (  -0.2506202   0.4306977   0.9806065  )
        35        N      tau(  35) = (  -0.0005265   0.5747095   1.2154580  )
        36        N      tau(  36) = (  -0.2512689   0.7195647   1.2149149  )
        37        Cr     tau(  37) = (   0.3302771   0.2871254   0.8660297  )
        38        Cr     tau(  38) = (   0.8348107  -0.0038740   0.8663673  )
        39        Cr     tau(  39) = (   0.5813660   0.1377964   0.8656961  )
        40        Cr     tau(  40) = (   0.6703845   0.2947219   0.6425198  )
        41        Cr     tau(  41) = (   0.4210988   0.1315898   0.6449602  )
        42        Cr     tau(  42) = (   0.6548213  -0.0021202   0.6443338  )
        43        N      tau(  43) = (   0.4991128  -0.0024442   0.5335582  )
        44        N      tau(  44) = (   0.7486422   0.1423989   0.7455282  )
        45        N      tau(  45) = (   0.4986955   0.2865372   0.7449291  )
        46        Cr     tau(  46) = (   0.3289686   0.2942499   1.3123540  )
        47        Cr     tau(  47) = (   0.8463024  -0.0024546   1.3165191  )
        48        Cr     tau(  48) = (   0.5757277   0.1298483   1.3171239  )
        49        Cr     tau(  49) = (   0.6669065   0.2883699   1.0974901  )
        50        Cr     tau(  50) = (   0.4164101   0.1401463   1.0979681  )
        51        Cr     tau(  51) = (   0.6630495  -0.0018524   1.0971766  )
        52        N      tau(  52) = (   0.4991319  -0.0022689   0.9801143  )
        53        N      tau(  53) = (   0.7489208   0.1413021   1.2153551  )
        54        N      tau(  54) = (   0.5005829   0.2862478   1.2148118  )
        55        Cr     tau(  55) = (   0.0810414   0.7213380   0.8663227  )
        56        Cr     tau(  56) = (   0.5841898   0.4305678   0.8666835  )
        57        Cr     tau(  57) = (   0.3309118   0.5724923   0.8665291  )
        58        Cr     tau(  58) = (   0.4205211   0.7284281   0.6436297  )
        59        Cr     tau(  59) = (   0.1709650   0.5658353   0.6437658  )
        60        Cr     tau(  60) = (   0.4052751   0.4310067   0.6429633  )
        61        N      tau(  61) = (   0.2485373   0.4303228   0.5336999  )
        62        N      tau(  62) = (   0.4989052   0.5750178   0.7455091  )
        63        N      tau(  63) = (   0.2489798   0.7192627   0.7460451  )
        64        Cr     tau(  64) = (   0.0738785   0.7341730   1.3126157  )
        65        Cr     tau(  65) = (   0.5978619   0.4303245   1.3174596  )
        66        Cr     tau(  66) = (   0.3295629   0.5656465   1.3139276  )
        67        Cr     tau(  67) = (   0.4171181   0.7206869   1.0976723  )
        68        Cr     tau(  68) = (   0.1661157   0.5729652   1.0978992  )
        69        Cr     tau(  69) = (   0.4137065   0.4304833   1.0965889  )
        70        N      tau(  70) = (   0.2488144   0.4304356   0.9808350  )
        71        N      tau(  71) = (   0.5001820   0.5746429   1.2150352  )
        72        N      tau(  72) = (   0.2485639   0.7193585   1.2148968  )
        73        C      tau(  73) = (   0.1128808   0.4672156   1.5891307  )
        74        H      tau(  74) = (   0.0532863   0.5163756   1.6674244  )
        75        H      tau(  75) = (   0.1942518   0.4041286   1.6274089  )
        76        H      tau(  76) = (   0.0358950   0.4023993   1.5232184  )
        77        H      tau(  77) = (   0.1599481   0.5573080   1.5197396  )

     --------------------------------------------
     DFT-D3 Dispersion Correction (3-body terms):
     --------------------------------------------
       Reference C6 values for interpolation: 

         atom   Coordination number   C6
         H          0.912             6.05
         H          0.000            15.18
         C          0.000            98.23
         C          0.987            86.49
         C          1.998            58.72
         C          2.999            51.56
         C          3.984            36.41
         N          0.000            50.54
         N          0.994            44.25
         N          2.014            39.35
         N          2.990            31.16
         Cr         0.000          1381.48
         Cr         1.827           571.38
         Cr        10.619           306.69

       Values used:

         atom   Coordination number  R0_AB[au]  C6      C8
         Cr        12.570            3.252    306.69  28303.74
         Cr        12.660            3.252    306.69  28303.74
         Cr        12.622            3.252    306.69  28303.74
         Cr        10.044            3.252    306.69  28303.74
         Cr        10.047            3.252    306.69  28303.74
         Cr        10.054            3.252    306.69  28303.74
         N          3.048            2.478     31.27    689.84
         N          6.019            2.478     31.16    687.49
         N          6.015            2.478     31.16    687.49
         Cr         9.143            3.252    306.69  28303.74
         Cr         9.082            3.252    306.69  28303.74
         Cr         8.954            3.252    306.69  28303.74
         Cr        12.596            3.252    306.69  28303.74
         Cr        12.692            3.252    306.69  28303.74
         Cr        12.716            3.252    306.69  28303.74
         N          6.044            2.478     31.16    687.49
         N          6.027            2.478     31.16    687.49
         N          6.019            2.478     31.16    687.49
         Cr        12.628            3.252    306.69  28303.74
         Cr        12.619            3.252    306.69  28303.74
         Cr        12.616            3.252    306.69  28303.74
         Cr        10.068            3.252    306.69  28303.74
         Cr        10.045            3.252    306.69  28303.74
         Cr        10.044            3.252    306.69  28303.74
         N          3.048            2.478     31.27    689.84
         N          6.018            2.478     31.16    687.49
         N          6.019            2.478     31.16    687.49
         Cr         9.083            3.252    306.69  28303.74
         Cr         9.579            3.252    306.69  28303.74
         Cr         9.130            3.252    306.69  28303.74
         Cr        12.717            3.252    306.69  28303.74
         Cr        12.703            3.252    306.69  28303.74
         Cr        12.658            3.252    306.69  28303.74
         N          6.042            2.478     31.16    687.49
         N          6.022            2.478     31.16    687.49
         N          6.034            2.478     31.16    687.49
         Cr        12.617            3.252    306.69  28303.74
         Cr        12.625            3.252    306.69  28303.74
         Cr        12.602            3.252    306.69  28303.74
         Cr        10.029            3.252    306.69  28303.74
         Cr        10.083            3.252    306.69  28303.74
         Cr        10.094            3.252    306.69  28303.74
         N          3.049            2.478     31.27    689.83
         N          6.017            2.478     31.16    687.49
         N          6.012            2.478     31.16    687.49
         Cr         9.047            3.252    306.69  28303.74
         Cr         9.060            3.252    306.69  28303.74
         Cr         9.083            3.252    306.69  28303.74
         Cr        12.677            3.252    306.69  28303.74
         Cr        12.732            3.252    306.69  28303.74
         Cr        12.694            3.252    306.69  28303.74
         N          6.046            2.478     31.16    687.49
         N          6.032            2.478     31.16    687.49
         N          6.032            2.478     31.16    687.49
         Cr        12.660            3.252    306.69  28303.74
         Cr        12.577            3.252    306.69  28303.74
         Cr        12.623            3.252    306.69  28303.74
         Cr        10.056            3.252    306.69  28303.74
         Cr        10.057            3.252    306.69  28303.74
         Cr        10.020            3.252    306.69  28303.74
         N          3.048            2.478     31.27    689.84
         N          6.016            2.478     31.16    687.49
         N          6.022            2.478     31.16    687.49
         Cr         8.985            3.252    306.69  28303.74
         Cr         8.995            3.252    306.69  28303.74
         Cr         9.026            3.252    306.69  28303.74
         Cr        12.719            3.252    306.69  28303.74
         Cr        12.593            3.252    306.69  28303.74
         Cr        12.673            3.252    306.69  28303.74
         N          6.041            2.478     31.16    687.49
         N          6.031            2.478     31.16    687.49
         N          6.025            2.478     31.16    687.49
         C          4.400            2.750     36.42   1053.44
         H          1.002            2.062      6.18     74.70
         H          1.004            2.062      6.18     74.67
         H          1.396            2.062      6.06     73.26
         H          1.061            2.062      6.14     74.17

         Molecular C6 ( Ry / a.u.^6 ) =    974387.61


     number of k points=    10  Methfessel-Paxton smearing, width (Ry)=  0.0200
                       cart. coord. in units 2pi/alat
        k(    1) = (   0.0000000   0.0000000   0.0000000), wk =   0.1250000
        k(    2) = (   0.0000000   0.2886753   0.0000000), wk =   0.2500000
        k(    3) = (   0.0000000  -0.5773505   0.0000000), wk =   0.1250000
        k(    4) = (   0.2500000   0.4330129   0.0000000), wk =   0.2500000
        k(    5) = (  -0.2500000   0.1443376   0.0000000), wk =   0.2500000
        k(    6) = (   0.2500000   0.1443376   0.0000000), wk =   0.2500000
        k(    7) = (   0.5000000  -0.2886753   0.0000000), wk =   0.1250000
        k(    8) = (  -0.5000000  -0.2886753   0.0000000), wk =   0.1250000
        k(    9) = (  -0.2500000   0.4330129   0.0000000), wk =   0.2500000
        k(   10) = (   0.5000000  -0.0000000   0.0000000), wk =   0.2500000

     Dense  grid:  4502593 G-vectors     FFT dimensions: ( 180, 180, 375)

     Smooth grid:   866593 G-vectors     FFT dimensions: (  96,  96, 216)

     Estimated max dynamical RAM per process >     867.27 MB

     Estimated total dynamical RAM >      50.98 GB

     Initial potential from superposition of free atoms

     starting charge     799.9627, renormalised to     800.0000

     negative rho (up, down):  3.901E-04 0.000E+00
     Starting wfcs are  584 randomized atomic wfcs
     Checking if some PAW data can be deallocated... 

     total cpu time spent up to now is       19.8 secs

     Self-consistent Calculation

     iteration #  1     ecut=    70.00 Ry     beta= 0.20
     Davidson diagonalization with overlap
     ethr =  1.00E-02,  avg # of iterations =  2.6

     negative rho (up, down):  1.539E-04 0.000E+00

     total cpu time spent up to now is       65.9 secs

     total energy              =  -12611.06297818 Ry
     estimated scf accuracy    <      28.32863687 Ry

     iteration #  2     ecut=    70.00 Ry     beta= 0.20
     Davidson diagonalization with overlap
     ethr =  3.54E-03,  avg # of iterations =  6.8

     negative rho (up, down):  4.193E-04 0.000E+00

     total cpu time spent up to now is      123.3 secs

     total energy              =  -12600.92111083 Ry
     estimated scf accuracy    <     744.59371736 Ry

     iteration #  3     ecut=    70.00 Ry     beta= 0.20
     Davidson diagonalization with overlap
     ethr =  3.54E-03,  avg # of iterations =  4.2

     negative rho (up, down):  6.247E-04 0.000E+00

     total cpu time spent up to now is      166.5 secs

     total energy              =  -12608.31956022 Ry
     estimated scf accuracy    <     531.26240909 Ry

     iteration #  4     ecut=    70.00 Ry     beta= 0.20
     Davidson diagonalization with overlap
     ethr =  3.54E-03,  avg # of iterations =  2.0

     negative rho (up, down):  3.022E-04 0.000E+00

     total cpu time spent up to now is      207.4 secs

     total energy              =  -12615.10928711 Ry
     estimated scf accuracy    <      61.11378068 Ry

     iteration #  5     ecut=    70.00 Ry     beta= 0.20
     Davidson diagonalization with overlap
     ethr =  3.54E-03,  avg # of iterations =  1.4

     negative rho (up, down):  4.034E-04 0.000E+00

     total cpu time spent up to now is      247.2 secs

     total energy              =  -12615.51559183 Ry
     estimated scf accuracy    <      22.74072956 Ry

     iteration #  6     ecut=    70.00 Ry     beta= 0.20
     Davidson diagonalization with overlap
     ethr =  2.84E-03,  avg # of iterations =  1.4

     negative rho (up, down):  4.517E-04 0.000E+00

     total cpu time spent up to now is      287.0 secs

     total energy              =  -12616.30187000 Ry
     estimated scf accuracy    <       1.82382997 Ry

     iteration #  7     ecut=    70.00 Ry     beta= 0.20
     Davidson diagonalization with overlap
     ethr =  2.28E-04,  avg # of iterations =  9.3

     negative rho (up, down):  4.511E-04 0.000E+00

     total cpu time spent up to now is      344.0 secs

     total energy              =  -12616.40924631 Ry
     estimated scf accuracy    <       3.35979504 Ry

     iteration #  8     ecut=    70.00 Ry     beta= 0.20
     Davidson diagonalization with overlap
     ethr =  2.28E-04,  avg # of iterations =  1.0

     negative rho (up, down):  4.755E-04 0.000E+00

     total cpu time spent up to now is      379.8 secs

     total energy              =  -12616.43470215 Ry
     estimated scf accuracy    <       1.48832665 Ry

     iteration #  9     ecut=    70.00 Ry     beta= 0.20
     Davidson diagonalization with overlap
     ethr =  1.86E-04,  avg # of iterations =  1.0

     negative rho (up, down):  4.547E-04 0.000E+00

     total cpu time spent up to now is      415.6 secs

     total energy              =  -12616.45016237 Ry
     estimated scf accuracy    <       0.76849198 Ry

     iteration # 10     ecut=    70.00 Ry     beta= 0.20
     Davidson diagonalization with overlap
     ethr =  9.61E-05,  avg # of iterations =  1.0

     negative rho (up, down):  3.225E-04 0.000E+00

     total cpu time spent up to now is      451.3 secs

     total energy              =  -12616.43900411 Ry
     estimated scf accuracy    <       0.43156916 Ry

     iteration # 11     ecut=    70.00 Ry     beta= 0.20
     Davidson diagonalization with overlap
     ethr =  5.39E-05,  avg # of iterations =  1.2

     negative rho (up, down):  4.170E-04 0.000E+00

     total cpu time spent up to now is      489.2 secs

     total energy              =  -12616.44817070 Ry
     estimated scf accuracy    <       0.27397427 Ry

     iteration # 12     ecut=    70.00 Ry     beta= 0.20
     Davidson diagonalization with overlap
     ethr =  3.42E-05,  avg # of iterations =  1.1

     negative rho (up, down):  2.878E-04 0.000E+00

     total cpu time spent up to now is      526.3 secs

     total energy              =  -12616.44630236 Ry
     estimated scf accuracy    <       0.45868221 Ry

     iteration # 13     ecut=    70.00 Ry     beta= 0.20
     Davidson diagonalization with overlap
     ethr =  3.42E-05,  avg # of iterations =  1.0

     negative rho (up, down):  2.704E-04 0.000E+00

     total cpu time spent up to now is      562.0 secs

     total energy              =  -12616.45417657 Ry
     estimated scf accuracy    <       0.11104396 Ry

     iteration # 14     ecut=    70.00 Ry     beta= 0.20
     Davidson diagonalization with overlap
     ethr =  1.39E-05,  avg # of iterations =  1.1

     negative rho (up, down):  2.326E-04 0.000E+00

     total cpu time spent up to now is      598.7 secs

     total energy              =  -12616.45202109 Ry
     estimated scf accuracy    <       0.13440280 Ry

     iteration # 15     ecut=    70.00 Ry     beta= 0.20
     Davidson diagonalization with overlap
     ethr =  1.39E-05,  avg # of iterations =  1.1

     negative rho (up, down):  2.152E-04 0.000E+00

     total cpu time spent up to now is      635.7 secs

     total energy              =  -12616.45216863 Ry
     estimated scf accuracy    <       0.12565407 Ry

     iteration # 16     ecut=    70.00 Ry     beta= 0.20
     Davidson diagonalization with overlap
     ethr =  1.39E-05,  avg # of iterations =  1.1

     negative rho (up, down):  1.958E-04 0.000E+00

     total cpu time spent up to now is      672.3 secs

     total energy              =  -12616.45262073 Ry
     estimated scf accuracy    <       0.10426403 Ry

     iteration # 17     ecut=    70.00 Ry     beta= 0.20
     Davidson diagonalization with overlap
     ethr =  1.30E-05,  avg # of iterations =  1.0

     negative rho (up, down):  1.990E-04 0.000E+00

     total cpu time spent up to now is      708.2 secs

     total energy              =  -12616.45225792 Ry
     estimated scf accuracy    <       0.09873579 Ry

     iteration # 18     ecut=    70.00 Ry     beta= 0.20
     Davidson diagonalization with overlap
     ethr =  1.23E-05,  avg # of iterations =  1.0

     negative rho (up, down):  1.978E-04 0.000E+00

     total cpu time spent up to now is      743.8 secs

     total energy              =  -12616.45493461 Ry
     estimated scf accuracy    <       0.03614416 Ry

     iteration # 19     ecut=    70.00 Ry     beta= 0.20
     Davidson diagonalization with overlap
     ethr =  4.52E-06,  avg # of iterations =  2.0

     negative rho (up, down):  1.980E-04 0.000E+00

     total cpu time spent up to now is      784.4 secs

     total energy              =  -12616.45575233 Ry
     estimated scf accuracy    <       0.00894436 Ry

     iteration # 20     ecut=    70.00 Ry     beta= 0.20
     Davidson diagonalization with overlap
     c_bands:  2 eigenvalues not converged
     c_bands:  1 eigenvalues not converged
     ethr =  1.12E-06,  avg # of iterations = 13.0

     negative rho (up, down):  1.996E-04 0.000E+00

     total cpu time spent up to now is      833.9 secs

     total energy              =  -12616.45591561 Ry
     estimated scf accuracy    <       0.00407357 Ry

     iteration # 21     ecut=    70.00 Ry     beta= 0.20
     Davidson diagonalization with overlap
     ethr =  5.09E-07,  avg # of iterations =  5.0

     negative rho (up, down):  2.013E-04 0.000E+00

     total cpu time spent up to now is      877.4 secs

     total energy              =  -12616.45595347 Ry
     estimated scf accuracy    <       0.00635034 Ry

     iteration # 22     ecut=    70.00 Ry     beta= 0.20
     Davidson diagonalization with overlap
     ethr =  5.09E-07,  avg # of iterations =  1.7

     negative rho (up, down):  2.055E-04 0.000E+00

     total cpu time spent up to now is      917.6 secs

     total energy              =  -12616.45616740 Ry
     estimated scf accuracy    <       0.00259121 Ry

     iteration # 23     ecut=    70.00 Ry     beta= 0.20
     Davidson diagonalization with overlap
     ethr =  3.24E-07,  avg # of iterations =  1.9

     negative rho (up, down):  2.082E-04 0.000E+00

     total cpu time spent up to now is      958.3 secs

     total energy              =  -12616.45621608 Ry
     estimated scf accuracy    <       0.00310971 Ry

     iteration # 24     ecut=    70.00 Ry     beta= 0.20
     Davidson diagonalization with overlap
     ethr =  3.24E-07,  avg # of iterations =  1.3

     negative rho (up, down):  2.082E-04 0.000E+00

     total cpu time spent up to now is      997.5 secs

     total energy              =  -12616.45629639 Ry
     estimated scf accuracy    <       0.00074041 Ry

     iteration # 25     ecut=    70.00 Ry     beta= 0.20
     Davidson diagonalization with overlap
     ethr =  9.26E-08,  avg # of iterations =  4.3

     negative rho (up, down):  2.084E-04 0.000E+00

     total cpu time spent up to now is     1040.5 secs

     total energy              =  -12616.45630828 Ry
     estimated scf accuracy    <       0.00056781 Ry

     iteration # 26     ecut=    70.00 Ry     beta= 0.20
     Davidson diagonalization with overlap
     ethr =  7.10E-08,  avg # of iterations =  2.3

     negative rho (up, down):  2.080E-04 0.000E+00

     total cpu time spent up to now is     1081.3 secs

     total energy              =  -12616.45630399 Ry
     estimated scf accuracy    <       0.00085642 Ry

     iteration # 27     ecut=    70.00 Ry     beta= 0.20
     Davidson diagonalization with overlap
     ethr =  7.10E-08,  avg # of iterations =  3.0

     negative rho (up, down):  2.090E-04 0.000E+00

     total cpu time spent up to now is     1123.3 secs

     total energy              =  -12616.45631139 Ry
     estimated scf accuracy    <       0.00111913 Ry

     iteration # 28     ecut=    70.00 Ry     beta= 0.20
     Davidson diagonalization with overlap
     ethr =  7.10E-08,  avg # of iterations =  1.0

     negative rho (up, down):  2.089E-04 0.000E+00

     total cpu time spent up to now is     1159.0 secs

     total energy              =  -12616.45633492 Ry
     estimated scf accuracy    <       0.00013918 Ry

     iteration # 29     ecut=    70.00 Ry     beta= 0.20
     Davidson diagonalization with overlap
     ethr =  1.74E-08,  avg # of iterations =  8.8

     negative rho (up, down):  2.081E-04 0.000E+00

     total cpu time spent up to now is     1205.7 secs

     total energy              =  -12616.45633447 Ry
     estimated scf accuracy    <       0.00056464 Ry

     iteration # 30     ecut=    70.00 Ry     beta= 0.20
     Davidson diagonalization with overlap
     ethr =  1.74E-08,  avg # of iterations =  1.0

     negative rho (up, down):  2.079E-04 0.000E+00

     total cpu time spent up to now is     1241.4 secs

     total energy              =  -12616.45633749 Ry
     estimated scf accuracy    <       0.00015931 Ry

     iteration # 31     ecut=    70.00 Ry     beta= 0.20
     Davidson diagonalization with overlap
     ethr =  1.74E-08,  avg # of iterations =  1.1

     negative rho (up, down):  2.076E-04 0.000E+00

     total cpu time spent up to now is     1278.3 secs

     total energy              =  -12616.45634069 Ry
     estimated scf accuracy    <       0.00007543 Ry

     iteration # 32     ecut=    70.00 Ry     beta= 0.20
     Davidson diagonalization with overlap
     ethr =  9.43E-09,  avg # of iterations =  1.5

     negative rho (up, down):  2.072E-04 0.000E+00

     total cpu time spent up to now is     1317.6 secs

     total energy              =  -12616.45634067 Ry
     estimated scf accuracy    <       0.00002874 Ry

     iteration # 33     ecut=    70.00 Ry     beta= 0.20
     Davidson diagonalization with overlap
     ethr =  3.59E-09,  avg # of iterations =  3.4

     negative rho (up, down):  2.070E-04 0.000E+00

     total cpu time spent up to now is     1360.1 secs

     total energy              =  -12616.45633947 Ry
     estimated scf accuracy    <       0.00007152 Ry

     iteration # 34     ecut=    70.00 Ry     beta= 0.20
     Davidson diagonalization with overlap
     ethr =  3.59E-09,  avg # of iterations =  1.3

     negative rho (up, down):  2.069E-04 0.000E+00

     total cpu time spent up to now is     1398.3 secs

     total energy              =  -12616.45634048 Ry
     estimated scf accuracy    <       0.00003063 Ry

     iteration # 35     ecut=    70.00 Ry     beta= 0.20
     Davidson diagonalization with overlap
     ethr =  3.59E-09,  avg # of iterations =  1.3

     negative rho (up, down):  2.066E-04 0.000E+00

     total cpu time spent up to now is     1437.5 secs

     total energy              =  -12616.45634012 Ry
     estimated scf accuracy    <       0.00001641 Ry

     iteration # 36     ecut=    70.00 Ry     beta= 0.20
     Davidson diagonalization with overlap
     ethr =  2.05E-09,  avg # of iterations =  1.7

     negative rho (up, down):  2.060E-04 0.000E+00

     total cpu time spent up to now is     1476.6 secs

     total energy              =  -12616.45633936 Ry
     estimated scf accuracy    <       0.00001032 Ry

     iteration # 37     ecut=    70.00 Ry     beta= 0.20
     Davidson diagonalization with overlap
     ethr =  1.29E-09,  avg # of iterations =  2.0

     negative rho (up, down):  2.060E-04 0.000E+00

     total cpu time spent up to now is     1517.3 secs

     total energy              =  -12616.45633904 Ry
     estimated scf accuracy    <       0.00002865 Ry

     iteration # 38     ecut=    70.00 Ry     beta= 0.20
     Davidson diagonalization with overlap
     ethr =  1.29E-09,  avg # of iterations =  1.0

     negative rho (up, down):  2.058E-04 0.000E+00

     total cpu time spent up to now is     1552.8 secs

     total energy              =  -12616.45633933 Ry
     estimated scf accuracy    <       0.00000547 Ry

     iteration # 39     ecut=    70.00 Ry     beta= 0.20
     Davidson diagonalization with overlap
     ethr =  6.84E-10,  avg # of iterations =  2.0

     negative rho (up, down):  2.058E-04 0.000E+00

     total cpu time spent up to now is     1593.4 secs

     total energy              =  -12616.45633926 Ry
     estimated scf accuracy    <       0.00001180 Ry

     iteration # 40     ecut=    70.00 Ry     beta= 0.20
     Davidson diagonalization with overlap
     ethr =  6.84E-10,  avg # of iterations =  1.1

     negative rho (up, down):  2.057E-04 0.000E+00

     total cpu time spent up to now is     1630.1 secs

     total energy              =  -12616.45633908 Ry
     estimated scf accuracy    <       0.00002193 Ry

     iteration # 41     ecut=    70.00 Ry     beta= 0.20
     Davidson diagonalization with overlap
     ethr =  6.84E-10,  avg # of iterations =  1.9

     negative rho (up, down):  2.056E-04 0.000E+00

     total cpu time spent up to now is     1670.4 secs

     total energy              =  -12616.45633908 Ry
     estimated scf accuracy    <       0.00001393 Ry

     iteration # 42     ecut=    70.00 Ry     beta= 0.20
     Davidson diagonalization with overlap
     ethr =  6.84E-10,  avg # of iterations =  1.0

     negative rho (up, down):  2.055E-04 0.000E+00

     total cpu time spent up to now is     1706.3 secs

     total energy              =  -12616.45633927 Ry
     estimated scf accuracy    <       0.00000338 Ry

     iteration # 43     ecut=    70.00 Ry     beta= 0.20
     Davidson diagonalization with overlap
     ethr =  4.22E-10,  avg # of iterations =  1.0

     negative rho (up, down):  2.055E-04 0.000E+00

     total cpu time spent up to now is     1741.9 secs

     total energy              =  -12616.45633937 Ry
     estimated scf accuracy    <       0.00000101 Ry

     iteration # 44     ecut=    70.00 Ry     beta= 0.20
     Davidson diagonalization with overlap
     ethr =  1.26E-10,  avg # of iterations =  2.0

     negative rho (up, down):  2.054E-04 0.000E+00

     total cpu time spent up to now is     1782.4 secs

     total energy              =  -12616.45633931 Ry
     estimated scf accuracy    <       0.00000176 Ry

     iteration # 45     ecut=    70.00 Ry     beta= 0.20
     Davidson diagonalization with overlap
     ethr =  1.26E-10,  avg # of iterations =  1.3

     negative rho (up, down):  2.053E-04 0.000E+00

     total cpu time spent up to now is     1821.3 secs

     total energy              =  -12616.45633931 Ry
     estimated scf accuracy    <       0.00000209 Ry

     iteration # 46     ecut=    70.00 Ry     beta= 0.20
     Davidson diagonalization with overlap
     ethr =  1.26E-10,  avg # of iterations =  1.1

     negative rho (up, down):  2.053E-04 0.000E+00

     total cpu time spent up to now is     1858.4 secs

     total energy              =  -12616.45633933 Ry
     estimated scf accuracy    <       0.00000104 Ry

     iteration # 47     ecut=    70.00 Ry     beta= 0.20
     Davidson diagonalization with overlap
     ethr =  1.26E-10,  avg # of iterations =  1.0

     negative rho (up, down):  2.054E-04 0.000E+00

     total cpu time spent up to now is     1894.1 secs

     total energy              =  -12616.45633934 Ry
     estimated scf accuracy    <       0.00000122 Ry

     iteration # 48     ecut=    70.00 Ry     beta= 0.20
     Davidson diagonalization with overlap
     ethr =  1.26E-10,  avg # of iterations =  1.0

     negative rho (up, down):  2.053E-04 0.000E+00

     total cpu time spent up to now is     1930.1 secs

     total energy              =  -12616.45633934 Ry
     estimated scf accuracy    <       0.00000170 Ry

     iteration # 49     ecut=    70.00 Ry     beta= 0.20
     Davidson diagonalization with overlap
     ethr =  1.26E-10,  avg # of iterations =  1.0

     negative rho (up, down):  2.053E-04 0.000E+00

     total cpu time spent up to now is     1966.1 secs

     total energy              =  -12616.45633934 Ry
     estimated scf accuracy    <       0.00000140 Ry

     iteration # 50     ecut=    70.00 Ry     beta= 0.20
     Davidson diagonalization with overlap
     ethr =  1.26E-10,  avg # of iterations =  1.0

     negative rho (up, down):  2.052E-04 0.000E+00

     total cpu time spent up to now is     2001.9 secs

     total energy              =  -12616.45633935 Ry
     estimated scf accuracy    <       0.00000214 Ry

     iteration # 51     ecut=    70.00 Ry     beta= 0.20
     Davidson diagonalization with overlap
     ethr =  1.26E-10,  avg # of iterations =  1.0

     negative rho (up, down):  2.052E-04 0.000E+00

     total cpu time spent up to now is     2037.9 secs

     total energy              =  -12616.45633937 Ry
     estimated scf accuracy    <       0.00000025 Ry

     iteration # 52     ecut=    70.00 Ry     beta= 0.20
     Davidson diagonalization with overlap
     ethr =  3.10E-11,  avg # of iterations =  1.3

     negative rho (up, down):  2.053E-04 0.000E+00

     total cpu time spent up to now is     2075.1 secs

     total energy              =  -12616.45633936 Ry
     estimated scf accuracy    <       0.00000047 Ry

     iteration # 53     ecut=    70.00 Ry     beta= 0.20
     Davidson diagonalization with overlap
     ethr =  3.10E-11,  avg # of iterations =  1.1

     negative rho (up, down):  2.052E-04 0.000E+00

     total cpu time spent up to now is     2112.2 secs

     total energy              =  -12616.45633936 Ry
     estimated scf accuracy    <       0.00000077 Ry

     iteration # 54     ecut=    70.00 Ry     beta= 0.20
     Davidson diagonalization with overlap
     ethr =  3.10E-11,  avg # of iterations =  1.0

     negative rho (up, down):  2.052E-04 0.000E+00

     total cpu time spent up to now is     2148.2 secs

     total energy              =  -12616.45633938 Ry
     estimated scf accuracy    <       0.00000019 Ry

     iteration # 55     ecut=    70.00 Ry     beta= 0.20
     Davidson diagonalization with overlap
     ethr =  2.35E-11,  avg # of iterations =  1.0

     negative rho (up, down):  2.052E-04 0.000E+00

     total cpu time spent up to now is     2184.0 secs

     total energy              =  -12616.45633938 Ry
     estimated scf accuracy    <       0.00000018 Ry

     iteration # 56     ecut=    70.00 Ry     beta= 0.20
     Davidson diagonalization with overlap
     ethr =  2.22E-11,  avg # of iterations =  1.0

     negative rho (up, down):  2.052E-04 0.000E+00

     total cpu time spent up to now is     2219.9 secs

     total energy              =  -12616.45633938 Ry
     estimated scf accuracy    <       0.00000009 Ry

     iteration # 57     ecut=    70.00 Ry     beta= 0.20
     Davidson diagonalization with overlap
     ethr =  1.10E-11,  avg # of iterations =  1.0

     negative rho (up, down):  2.052E-04 0.000E+00

     total cpu time spent up to now is     2255.8 secs

     total energy              =  -12616.45633938 Ry
     estimated scf accuracy    <       0.00000012 Ry

     iteration # 58     ecut=    70.00 Ry     beta= 0.20
     Davidson diagonalization with overlap
     ethr =  1.10E-11,  avg # of iterations =  1.0

     negative rho (up, down):  2.052E-04 0.000E+00

     total cpu time spent up to now is     2291.7 secs

     total energy              =  -12616.45633938 Ry
     estimated scf accuracy    <       0.00000030 Ry

     iteration # 59     ecut=    70.00 Ry     beta= 0.20
     Davidson diagonalization with overlap
     ethr =  1.10E-11,  avg # of iterations =  1.0

     negative rho (up, down):  2.052E-04 0.000E+00

     total cpu time spent up to now is     2327.6 secs

     total energy              =  -12616.45633938 Ry
     estimated scf accuracy    <       0.00000013 Ry

     iteration # 60     ecut=    70.00 Ry     beta= 0.20
     Davidson diagonalization with overlap
     ethr =  1.10E-11,  avg # of iterations =  1.0

     negative rho (up, down):  2.052E-04 0.000E+00

     total cpu time spent up to now is     2363.5 secs

     total energy              =  -12616.45633938 Ry
     estimated scf accuracy    <       0.00000019 Ry

     iteration # 61     ecut=    70.00 Ry     beta= 0.20
     Davidson diagonalization with overlap
     ethr =  1.10E-11,  avg # of iterations =  1.0

     negative rho (up, down):  2.052E-04 0.000E+00

     total cpu time spent up to now is     2399.3 secs

     total energy              =  -12616.45633938 Ry
     estimated scf accuracy    <       0.00000002 Ry

     iteration # 62     ecut=    70.00 Ry     beta= 0.20
     Davidson diagonalization with overlap
     ethr =  2.72E-12,  avg # of iterations =  1.0

     negative rho (up, down):  2.052E-04 0.000E+00

     total cpu time spent up to now is     2435.3 secs

     total energy              =  -12616.45633938 Ry
     estimated scf accuracy    <       0.00000006 Ry

     iteration # 63     ecut=    70.00 Ry     beta= 0.20
     Davidson diagonalization with overlap
     ethr =  2.72E-12,  avg # of iterations =  1.3

     negative rho (up, down):  2.052E-04 0.000E+00

     total cpu time spent up to now is     2473.6 secs

     total energy              =  -12616.45633938 Ry
     estimated scf accuracy    <       0.00000009 Ry

     iteration # 64     ecut=    70.00 Ry     beta= 0.20
     Davidson diagonalization with overlap
     ethr =  2.72E-12,  avg # of iterations =  1.0

     negative rho (up, down):  2.052E-04 0.000E+00

     total cpu time spent up to now is     2509.5 secs

     total energy              =  -12616.45633938 Ry
     estimated scf accuracy    <       0.00000002 Ry

     iteration # 65     ecut=    70.00 Ry     beta= 0.20
     Davidson diagonalization with overlap
     ethr =  2.19E-12,  avg # of iterations =  1.0

     negative rho (up, down):  2.052E-04 0.000E+00

     total cpu time spent up to now is     2545.3 secs

     total energy              =  -12616.45633938 Ry
     estimated scf accuracy    <       0.00000003 Ry

     iteration # 66     ecut=    70.00 Ry     beta= 0.20
     Davidson diagonalization with overlap
     ethr =  2.19E-12,  avg # of iterations =  1.0

     negative rho (up, down):  2.052E-04 0.000E+00

     total cpu time spent up to now is     2581.1 secs

     total energy              =  -12616.45633938 Ry
     estimated scf accuracy    <       0.00000003 Ry

     iteration # 67     ecut=    70.00 Ry     beta= 0.20
     Davidson diagonalization with overlap
     ethr =  2.19E-12,  avg # of iterations =  1.0

     negative rho (up, down):  2.052E-04 0.000E+00

     total cpu time spent up to now is     2617.0 secs

     total energy              =  -12616.45633938 Ry
     estimated scf accuracy    <       0.00000002 Ry

     iteration # 68     ecut=    70.00 Ry     beta= 0.20
     Davidson diagonalization with overlap
     ethr =  2.19E-12,  avg # of iterations =  1.0

     negative rho (up, down):  2.052E-04 0.000E+00

     total cpu time spent up to now is     2652.7 secs

     total energy              =  -12616.45633939 Ry
     estimated scf accuracy    <       0.00000001 Ry

     iteration # 69     ecut=    70.00 Ry     beta= 0.20
     Davidson diagonalization with overlap
     ethr =  1.54E-12,  avg # of iterations =  1.0

     negative rho (up, down):  2.052E-04 0.000E+00

     total cpu time spent up to now is     2688.6 secs

     End of self-consistent calculation

          k = 0.0000 0.0000 0.0000 (108303 PWs)   bands (ev):

   -66.9529 -66.9155 -66.9130 -66.9120 -66.9069 -66.9049 -66.9040 -66.9000
   -66.8825 -66.8811 -66.8798 -66.8757 -66.8731 -66.8725 -66.8700 -66.8685
   -66.8677 -66.8657 -66.8628 -66.8519 -66.8506 -66.8486 -66.8442 -66.8381
   -66.7082 -66.6861 -66.6857 -66.6847 -66.6579 -66.6558 -66.6547 -66.6454
   -66.6448 -66.6420 -66.6386 -66.6375 -66.6073 -66.5842 -66.5775 -66.5711
   -66.5700 -66.5593 -66.5359 -66.5249 -66.5239 -66.5192 -66.5162 -66.5143
   -38.7491 -38.7198 -38.7193 -38.7104 -38.6269 -38.6251 -38.6231 -38.5823
   -38.5792 -38.5679 -38.5656 -38.5620 -38.5604 -38.5204 -38.5161 -38.5142
   -38.5105 -38.5091 -38.5064 -38.4742 -38.4736 -38.4715 -38.4305 -38.4297
   -38.4286 -38.4269 -38.4256 -38.4244 -38.4110 -38.3828 -38.3774 -38.3759
   -38.3402 -38.3273 -38.3239 -38.3223 -38.3169 -38.3156 -38.2884 -38.2881
   -38.2860 -38.2646 -38.2596 -38.2580 -38.2503 -38.2495 -38.2479 -38.2432
   -38.2321 -38.2296 -38.2233 -38.2198 -38.2187 -38.2138 -38.2126 -38.2015
   -38.1999 -38.1956 -38.1947 -38.1928 -38.1915 -38.1879 -38.1791 -38.1770
   -38.1721 -38.1688 -38.1651 -38.1637 -38.1588 -38.1573 -38.1480 -38.1133
   -38.1092 -38.1068 -38.1026 -38.1013 -38.0990 -38.0913 -38.0863 -38.0804
   -38.0780 -38.0742 -38.0692 -38.0648 -38.0588 -38.0558 -38.0430 -38.0416
   -38.0391 -38.0327 -38.0250 -38.0028 -37.9974 -37.9954 -37.9943 -37.9922
   -37.9845 -37.9810 -37.9682 -37.9654 -37.9650 -37.9476 -37.9461 -37.9436
   -37.9175 -37.9156 -37.9112 -37.9030 -37.8948 -37.8902 -37.8897 -37.8885
   -37.8842 -37.8824 -37.8808 -37.8759 -37.8738 -37.8649 -37.8588 -37.8557
   -37.8539 -37.8501 -37.8484 -37.8464 -37.8130 -37.8114 -37.8111 -37.8033
   -37.8012 -37.7983 -37.7794 -37.7785 -37.7767 -37.7653 -37.7648 -37.7621
   -37.6723 -37.6581 -37.6443 -37.6242 -37.6227 -37.6010 -37.5973 -37.5914
   -12.4092 -11.9606 -11.7133 -11.7012 -11.6917 -11.5740 -11.5658 -11.5568
   -11.5183 -11.5028 -11.4951 -11.2537 -11.2454 -11.2332 -11.1948 -11.1393
   -11.1285 -11.1256 -10.9120 -10.8368  -9.2211  -9.2149  -9.2135  -9.1015
    -8.5713  -2.9178  -2.9120  -2.9073  -2.6986  -2.6775  -2.6723  -2.4719
    -2.4627  -2.4587  -2.4548  -2.4526  -2.4482  -2.3662  -2.3337  -2.3174
    -2.2997  -2.2191  -2.2167  -2.2064  -2.1914  -2.1760  -1.6882  -1.6770
    -1.6675  -1.5092  -1.4832  -1.4653  -1.4087  -1.4038  -1.3888  -1.3626
    -1.3591  -1.3512  -1.3131  -1.2521  -1.2418  -1.2350  -1.2195  -1.2114
    -1.2039  -1.1692  -1.1570  -1.1549  -1.1127  -0.9831  -0.9735  -0.9455
    -0.8671  -0.8573  -0.8262  -0.7948  -0.7817  -0.7710  -0.7564  -0.7361
    -0.7330  -0.7272  -0.6022  -0.5706  -0.5226  -0.3263  -0.3123  -0.3016
     0.6072   0.8525   0.8563   0.8595   1.0968   1.1004   1.1060   1.1298
     1.1366   1.1492   1.1583   1.1627   1.2435   1.6145   1.6265   1.6439
     1.8042   1.8152   1.8611   2.0148   2.0346   2.0411   2.1052   2.2506
     2.2640   2.2693   2.3613   2.3680   2.3782   2.4874   2.4885   2.4917
     2.5083   2.5180   2.5214   2.5448   2.5495   2.5639   2.6029   2.7613
     2.7647   2.7709   2.7821   2.8048   3.1994   3.2195   3.2422   3.3067
     3.3207   3.3904   3.4003   3.4113   3.4160   3.4242   3.4278   3.5125
     3.5259   3.5472   3.5644   3.5710   3.6309   3.6895   3.6957   3.6982
     3.7316   3.7351   3.7372   3.7530   3.7762   3.7784   3.7843   3.8011
     3.8114   3.8254   4.0430   4.0472   4.0840   4.1959   4.2016   4.2106
     4.2180   4.2336   4.3198   4.3481   4.3739   4.3935   4.4085   4.4221
     4.4379   4.4717   4.4897   4.4965   4.5022   4.5039   4.5073   4.5266
     4.5497   4.5584   4.6610   4.7043   4.7138   4.7738   4.8246   4.8295
     4.8450   4.8550   4.8667   4.8784   4.9070   4.9459   4.9688   4.9852
     4.9874   5.0006   5.0134   5.0205   5.0604   5.1472   5.1707   5.1764
     5.2625   5.3165   5.4082   5.4667   5.4712   5.4760   5.5508   5.5635
     5.5925   5.6096   5.6232   5.6278   5.6567   5.6684   5.6973   5.7099
     5.7370   5.7515   5.7578   5.7614   5.7777   5.7910   5.8166   5.8195
     5.8719   5.8942   5.9027   5.9104   5.9145   5.9293   5.9493   5.9617
     5.9660   6.0031   6.0413   6.0447   6.0647   6.0668   6.0698   6.0819
     6.0824   6.0899   6.1203   6.1433   6.1468   6.1605   6.1869   6.2148
     6.2599   6.2718   6.2748   6.2823   6.2952   6.3252   6.3291   6.3550
     6.3561   6.3609   6.3738   6.3899   6.3967   6.4280   6.4360   6.5214
     6.6390   6.6459   6.6498   6.6549   6.6683   6.6782   6.6991   6.7384
     6.7414   6.7471   6.7761   6.7846   6.7938   6.7963   6.8250   6.9104

          k = 0.0000 0.2887 0.0000 (108355 PWs)   bands (ev):

   -66.9495 -66.9263 -66.9170 -66.9163 -66.9006 -66.8995 -66.8975 -66.8932
   -66.8844 -66.8830 -66.8817 -66.8792 -66.8750 -66.8744 -66.8721 -66.8714
   -66.8642 -66.8631 -66.8579 -66.8526 -66.8513 -66.8483 -66.8445 -66.8390
   -66.7057 -66.6903 -66.6865 -66.6853 -66.6555 -66.6539 -66.6517 -66.6461
   -66.6457 -66.6421 -66.6400 -66.6386 -66.6062 -66.5865 -66.5755 -66.5735
   -66.5697 -66.5587 -66.5348 -66.5246 -66.5227 -66.5194 -66.5168 -66.5155
   -38.7448 -38.7224 -38.7159 -38.7083 -38.6220 -38.6190 -38.6159 -38.5911
   -38.5858 -38.5761 -38.5742 -38.5707 -38.5554 -38.5276 -38.5161 -38.5147
   -38.5077 -38.5052 -38.5037 -38.4767 -38.4723 -38.4604 -38.4577 -38.4515
   -38.4225 -38.4210 -38.4192 -38.4013 -38.3925 -38.3891 -38.3869 -38.3804
   -38.3324 -38.3313 -38.3263 -38.3133 -38.3076 -38.3050 -38.2892 -38.2857
   -38.2848 -38.2747 -38.2643 -38.2624 -38.2492 -38.2471 -38.2447 -38.2430
   -38.2369 -38.2342 -38.2331 -38.2220 -38.2186 -38.2157 -38.2132 -38.2095
   -38.2081 -38.2070 -38.1971 -38.1952 -38.1881 -38.1746 -38.1725 -38.1701
   -38.1677 -38.1657 -38.1610 -38.1605 -38.1508 -38.1482 -38.1456 -38.1169
   -38.1119 -38.1090 -38.1046 -38.1026 -38.1007 -38.0998 -38.0936 -38.0850
   -38.0803 -38.0787 -38.0720 -38.0635 -38.0571 -38.0556 -38.0490 -38.0451
   -38.0381 -38.0334 -38.0046 -38.0006 -37.9989 -37.9953 -37.9900 -37.9860
   -37.9825 -37.9796 -37.9653 -37.9641 -37.9611 -37.9499 -37.9485 -37.9462
   -37.9209 -37.9158 -37.9128 -37.9022 -37.8954 -37.8932 -37.8900 -37.8860
   -37.8843 -37.8820 -37.8789 -37.8746 -37.8709 -37.8631 -37.8605 -37.8567
   -37.8553 -37.8515 -37.8501 -37.8473 -37.8127 -37.8119 -37.8113 -37.8007
   -37.7980 -37.7954 -37.7860 -37.7804 -37.7763 -37.7666 -37.7647 -37.7630
   -37.6710 -37.6580 -37.6408 -37.6250 -37.6192 -37.6060 -37.5983 -37.5935
   -12.3446 -11.9172 -11.9115 -11.7629 -11.7488 -11.6277 -11.5484 -11.5368
   -11.4595 -11.4519 -11.3867 -11.2433 -11.2274 -11.2107 -11.1651 -11.1620
   -11.1463 -11.0862 -10.9466 -10.8727  -9.2213  -9.2176  -9.1973  -9.1163
    -8.5713  -2.8880  -2.8826  -2.8360  -2.7286  -2.6510  -2.6474  -2.6219
    -2.6124  -2.6092  -2.4895  -2.4763  -2.3610  -2.2876  -2.2567  -2.2535
    -2.2484  -2.2244  -2.1769  -2.1161  -2.1012  -2.0720  -1.8848  -1.6834
    -1.6757  -1.6289  -1.5642  -1.5322  -1.4741  -1.4075  -1.3947  -1.3805
    -1.3383  -1.3271  -1.3193  -1.2930  -1.2495  -1.2384  -1.2255  -1.1974
    -1.1700  -1.1616  -1.1459  -1.1123  -1.0476  -0.9871  -0.9644  -0.9345
    -0.9006  -0.8442  -0.8278  -0.8025  -0.7830  -0.7527  -0.7458  -0.7349
    -0.7026  -0.6855  -0.6334  -0.5356  -0.5077  -0.4016  -0.3427  -0.3331
     0.6920   0.8492   0.8534   0.8565   1.0807   1.0862   1.0932   1.1160
     1.1460   1.1536   1.1573   1.2112   1.3041   1.5719   1.6445   1.6777
     1.8275   1.8555   1.8971   2.0250   2.0475   2.0746   2.1196   2.2127
     2.2187   2.3390   2.3485   2.3585   2.3786   2.4810   2.4895   2.5113
     2.5150   2.5225   2.5722   2.6017   2.6069   2.6175   2.6689   2.6951
     2.7803   2.7915   2.7988   2.8867   3.0532   3.1406   3.2009   3.2451
     3.2633   3.2681   3.2728   3.3282   3.4206   3.4215   3.4501   3.4568
     3.4655   3.4909   3.5917   3.6137   3.6442   3.6544   3.6690   3.7179
     3.7437   3.7622   3.7677   3.7839   3.8078   3.8186   3.8438   3.8929
     4.0328   4.0611   4.0651   4.0776   4.1072   4.1140   4.1352   4.2025
     4.2348   4.2402   4.2721   4.2900   4.3063   4.3468   4.3546   4.3622
     4.3984   4.4191   4.4288   4.4466   4.4781   4.4992   4.5214   4.5384
     4.5551   4.5952   4.6003   4.6994   4.7150   4.7511   4.7830   4.8282
     4.8611   4.8712   4.8894   4.9208   4.9353   4.9914   4.9998   5.0051
     5.0144   5.0256   5.0450   5.0837   5.1201   5.1847   5.1987   5.2097
     5.2303   5.2690   5.3445   5.3660   5.4080   5.4380   5.4664   5.5179
     5.5273   5.5422   5.5503   5.5554   5.6089   5.6153   5.6449   5.6589
     5.6768   5.7513   5.7620   5.7692   5.7990   5.8010   5.8163   5.8379
     5.8593   5.8647   5.8710   5.8867   5.9033   5.9434   5.9604   5.9658
     5.9798   5.9991   6.0231   6.0265   6.0433   6.0475   6.0657   6.0741
     6.0887   6.1006   6.1151   6.1282   6.1379   6.1426   6.2016   6.2608
     6.2832   6.2864   6.3048   6.3224   6.3350   6.3456   6.3522   6.3687
     6.3862   6.3991   6.4174   6.4454   6.4624   6.4824   6.5138   6.5186
     6.5275   6.5394   6.6001   6.6138   6.6188   6.6773   6.7022   6.7189
     6.7325   6.7452   6.7811   6.7968   6.8146   6.8300   6.8844   6.8941

          k = 0.0000-0.5774 0.0000 (108310 PWs)   bands (ev):

   -66.9404 -66.9395 -66.9190 -66.9185 -66.8939 -66.8936 -66.8918 -66.8906
   -66.8883 -66.8866 -66.8819 -66.8809 -66.8771 -66.8758 -66.8753 -66.8733
   -66.8616 -66.8596 -66.8561 -66.8538 -66.8511 -66.8488 -66.8439 -66.8406
   -66.6996 -66.6983 -66.6869 -66.6858 -66.6526 -66.6515 -66.6493 -66.6474
   -66.6446 -66.6443 -66.6412 -66.6401 -66.6050 -66.5885 -66.5757 -66.5727
   -66.5707 -66.5581 -66.5338 -66.5242 -66.5206 -66.5193 -66.5184 -66.5169
   -38.7360 -38.7307 -38.7121 -38.7051 -38.6107 -38.6098 -38.6064 -38.6046
   -38.5883 -38.5866 -38.5851 -38.5829 -38.5461 -38.5433 -38.5186 -38.5171
   -38.4928 -38.4924 -38.4878 -38.4859 -38.4840 -38.4780 -38.4602 -38.4583
   -38.4081 -38.4078 -38.4058 -38.4036 -38.4024 -38.4010 -38.3815 -38.3806
   -38.3415 -38.3388 -38.3058 -38.3031 -38.2999 -38.2985 -38.2836 -38.2823
   -38.2763 -38.2759 -38.2701 -38.2677 -38.2586 -38.2541 -38.2446 -38.2441
   -38.2420 -38.2399 -38.2343 -38.2308 -38.2203 -38.2190 -38.2177 -38.2136
   -38.2070 -38.2020 -38.1989 -38.1953 -38.1935 -38.1879 -38.1685 -38.1635
   -38.1615 -38.1541 -38.1519 -38.1493 -38.1412 -38.1389 -38.1295 -38.1286
   -38.1246 -38.1214 -38.1145 -38.1092 -38.0988 -38.0960 -38.0908 -38.0888
   -38.0824 -38.0792 -38.0739 -38.0690 -38.0682 -38.0564 -38.0479 -38.0416
   -38.0374 -38.0331 -38.0039 -37.9997 -37.9972 -37.9914 -37.9883 -37.9858
   -37.9737 -37.9698 -37.9629 -37.9606 -37.9587 -37.9533 -37.9500 -37.9356
   -37.9319 -37.9223 -37.9107 -37.9074 -37.8946 -37.8932 -37.8881 -37.8877
   -37.8847 -37.8802 -37.8790 -37.8753 -37.8672 -37.8609 -37.8590 -37.8570
   -37.8552 -37.8543 -37.8521 -37.8499 -37.8126 -37.8122 -37.8044 -37.8020
   -37.7980 -37.7951 -37.7874 -37.7870 -37.7708 -37.7698 -37.7654 -37.7640
   -37.6692 -37.6575 -37.6362 -37.6229 -37.6200 -37.6123 -37.5972 -37.5966
   -12.1719 -12.1584 -11.8053 -11.7940 -11.7839 -11.7802 -11.5553 -11.5401
   -11.3823 -11.3752 -11.2757 -11.2573 -11.2555 -11.2315 -11.1950 -11.1703
   -11.0458 -11.0352 -10.9792 -10.9623  -9.2239  -9.2206  -9.1561  -9.1535
    -8.5713  -2.8573  -2.8528  -2.7559  -2.7455  -2.6901  -2.6777  -2.6766
    -2.6717  -2.5535  -2.5328  -2.4477  -2.4260  -2.2749  -2.2680  -2.2346
    -2.2248  -2.1779  -2.1703  -2.0265  -2.0071  -1.9610  -1.9266  -1.7553
    -1.7517  -1.6631  -1.6089  -1.5933  -1.5678  -1.4693  -1.4582  -1.3873
    -1.3690  -1.3470  -1.3436  -1.2598  -1.2545  -1.2071  -1.1783  -1.1588
    -1.1578  -1.1417  -1.1163  -1.0505  -1.0375  -0.9827  -0.9645  -0.9530
    -0.9176  -0.8846  -0.8193  -0.8028  -0.7720  -0.7635  -0.7339  -0.7218
    -0.6614  -0.6512  -0.5841  -0.5766  -0.5018  -0.4793  -0.3659  -0.3591
     0.8029   0.8061   0.8448   0.8473   1.0990   1.1073   1.1098   1.1212
     1.1312   1.1416   1.1786   1.1809   1.4096   1.4360   1.6644   1.7083
     1.9348   1.9659   1.9683   1.9797   2.0557   2.0952   2.1128   2.1274
     2.2495   2.2690   2.4231   2.4319   2.4369   2.4469   2.4796   2.4971
     2.5219   2.5272   2.5289   2.5412   2.6320   2.6427   2.7806   2.7945
     2.8065   2.8127   2.8755   2.8810   3.0725   3.0813   3.0913   3.1052
     3.1368   3.1598   3.2612   3.2700   3.3801   3.3860   3.4308   3.4494
     3.4708   3.4893   3.5674   3.5785   3.6440   3.6627   3.7028   3.7312
     3.7847   3.7878   3.8243   3.8633   3.9022   3.9225   3.9458   3.9727
     4.0021   4.0082   4.0248   4.0336   4.0687   4.0772   4.1880   4.1925
     4.1981   4.2043   4.3074   4.3431   4.3505   4.3625   4.3732   4.3868
     4.3971   4.4115   4.4192   4.4424   4.4722   4.4770   4.4894   4.5243
     4.5280   4.5507   4.6411   4.6672   4.6786   4.6957   4.7105   4.7176
     4.7270   4.7455   4.8632   4.8869   5.0004   5.0445   5.0542   5.0631
     5.0812   5.1047   5.1194   5.1381   5.1690   5.1859   5.1978   5.2011
     5.2499   5.2581   5.3054   5.3800   5.4004   5.4074   5.4104   5.4265
     5.4617   5.4865   5.5059   5.5490   5.5902   5.6096   5.6149   5.6235
     5.6510   5.6518   5.6714   5.7292   5.7875   5.7974   5.8082   5.8204
     5.8339   5.8439   5.8607   5.8872   5.8991   5.9168   5.9371   5.9473
     5.9506   5.9614   5.9834   5.9976   6.0329   6.0481   6.0619   6.0752
     6.0957   6.1179   6.1235   6.1955   6.2086   6.2280   6.2433   6.2516
     6.2549   6.2694   6.2859   6.2896   6.3058   6.3112   6.4094   6.4106
     6.4318   6.4412   6.4617   6.4835   6.4895   6.4952   6.5001   6.5072
     6.5199   6.5671   6.5841   6.5959   6.6615   6.6740   6.6842   6.7125
     6.7338   6.7378   6.7855   6.8083   6.9138   6.9196   6.9379   6.9558

          k = 0.2500 0.4330 0.0000 (108308 PWs)   bands (ev):

   -66.9430 -66.9318 -66.9306 -66.9085 -66.9005 -66.8935 -66.8917 -66.8878
   -66.8871 -66.8855 -66.8829 -66.8805 -66.8793 -66.8786 -66.8752 -66.8687
   -66.8636 -66.8576 -66.8573 -66.8540 -66.8508 -66.8485 -66.8451 -66.8400
   -66.7011 -66.6937 -66.6928 -66.6828 -66.6540 -66.6503 -66.6495 -66.6476
   -66.6447 -66.6425 -66.6419 -66.6407 -66.6052 -66.5868 -66.5789 -66.5728
   -66.5693 -66.5578 -66.5325 -66.5254 -66.5212 -66.5206 -66.5177 -66.5157
   -38.7368 -38.7260 -38.7200 -38.7011 -38.6133 -38.6101 -38.6047 -38.5987
   -38.5925 -38.5869 -38.5854 -38.5821 -38.5487 -38.5377 -38.5334 -38.5032
   -38.4966 -38.4934 -38.4899 -38.4851 -38.4732 -38.4707 -38.4681 -38.4661
   -38.4125 -38.4084 -38.4078 -38.4017 -38.3925 -38.3892 -38.3866 -38.3848
   -38.3681 -38.3115 -38.3069 -38.3056 -38.3041 -38.2922 -38.2915 -38.2799
   -38.2784 -38.2756 -38.2703 -38.2673 -38.2542 -38.2472 -38.2465 -38.2424
   -38.2421 -38.2396 -38.2370 -38.2350 -38.2242 -38.2229 -38.2178 -38.2138
   -38.2059 -38.2039 -38.1998 -38.1926 -38.1880 -38.1837 -38.1797 -38.1603
   -38.1575 -38.1542 -38.1507 -38.1499 -38.1400 -38.1399 -38.1364 -38.1256
   -38.1226 -38.1198 -38.1164 -38.1110 -38.0983 -38.0937 -38.0892 -38.0850
   -38.0811 -38.0796 -38.0776 -38.0727 -38.0669 -38.0578 -38.0463 -38.0440
   -38.0354 -38.0352 -38.0043 -38.0024 -37.9969 -37.9916 -37.9906 -37.9836
   -37.9755 -37.9682 -37.9645 -37.9569 -37.9544 -37.9518 -37.9473 -37.9435
   -37.9283 -37.9193 -37.9095 -37.9061 -37.9002 -37.8949 -37.8927 -37.8886
   -37.8831 -37.8803 -37.8775 -37.8766 -37.8653 -37.8607 -37.8586 -37.8577
   -37.8557 -37.8543 -37.8505 -37.8488 -37.8127 -37.8120 -37.8077 -37.8014
   -37.7986 -37.7913 -37.7906 -37.7849 -37.7718 -37.7683 -37.7656 -37.7647
   -37.6704 -37.6560 -37.6348 -37.6265 -37.6183 -37.6089 -37.6005 -37.5962
   -12.2225 -12.0122 -12.0016 -11.8310 -11.6928 -11.6800 -11.6327 -11.4749
   -11.4111 -11.3377 -11.3182 -11.3135 -11.2706 -11.2436 -11.1406 -11.1074
   -11.0612 -11.0542 -11.0090 -10.9396  -9.2393  -9.1875  -9.1843  -9.1430
    -8.5714  -2.9015  -2.8033  -2.7944  -2.7790  -2.6703  -2.6636  -2.6201
    -2.5853  -2.5313  -2.5230  -2.4968  -2.4904  -2.4491  -2.2816  -2.1375
    -2.1307  -2.1266  -2.0860  -2.0505  -2.0374  -1.9979  -1.9915  -1.8701
    -1.7086  -1.6803  -1.6193  -1.5863  -1.5038  -1.4485  -1.4368  -1.3781
    -1.3445  -1.3226  -1.3114  -1.2976  -1.2872  -1.2743  -1.2133  -1.1922
    -1.1278  -1.0960  -1.0810  -1.0486  -1.0402  -1.0235  -0.9693  -0.9539
    -0.8745  -0.8491  -0.8399  -0.7974  -0.7792  -0.7550  -0.7444  -0.7262
    -0.7040  -0.6491  -0.6195  -0.5643  -0.4726  -0.4402  -0.4275  -0.3205
     0.7783   0.8282   0.8314   0.8647   1.0639   1.0752   1.1180   1.1236
     1.1298   1.1783   1.1859   1.1928   1.3848   1.5192   1.5491   1.7491
     1.8871   1.9908   2.0074   2.0259   2.0938   2.1030   2.1109   2.1237
     2.2127   2.2804   2.2975   2.3556   2.4343   2.4391   2.4650   2.4732
     2.5123   2.5700   2.6211   2.6353   2.6427   2.7153   2.7249   2.7698
     2.8389   2.8644   2.8677   2.8910   2.9563   2.9675   2.9909   3.0709
     3.2046   3.2868   3.3363   3.3583   3.3910   3.3935   3.4133   3.4791
     3.4855   3.4953   3.5127   3.5906   3.5954   3.6152   3.6877   3.7493
     3.7609   3.7850   3.8050   3.8160   3.8496   3.8957   3.9010   3.9370
     4.0709   4.0802   4.0954   4.1008   4.1282   4.1358   4.1489   4.1693
     4.1983   4.2443   4.2628   4.2755   4.2845   4.3395   4.3451   4.3624
     4.3873   4.3965   4.4315   4.4610   4.4817   4.5012   4.5112   4.5217
     4.5913   4.5977   4.6222   4.6337   4.6561   4.6690   4.7002   4.7184
     4.7367   4.8861   4.9079   4.9142   4.9400   4.9578   4.9683   4.9861
     5.0281   5.0764   5.0928   5.1245   5.1737   5.2078   5.2280   5.2481
     5.2584   5.3014   5.3474   5.3754   5.3873   5.4048   5.4526   5.4769
     5.4950   5.5002   5.5099   5.5339   5.5437   5.5670   5.6041   5.6467
     5.6553   5.6873   5.7060   5.7759   5.7905   5.7989   5.8079   5.8290
     5.8389   5.8457   5.8547   5.8654   5.8798   5.9226   5.9312   5.9333
     5.9445   5.9501   5.9712   5.9891   6.0076   6.0425   6.0510   6.0731
     6.1008   6.1237   6.1332   6.1442   6.1601   6.1868   6.2048   6.2415
     6.2632   6.2752   6.2901   6.3198   6.3350   6.3531   6.3718   6.3907
     6.4057   6.4199   6.4346   6.4730   6.5079   6.5265   6.5458   6.5736
     6.5804   6.6097   6.6157   6.6288   6.6641   6.6878   6.7153   6.7187
     6.7322   6.7638   6.7796   6.7987   6.8432   6.8594   6.9197   6.9472

          k =-0.2500 0.1443 0.0000 (108355 PWs)   bands (ev):

   -66.9495 -66.9261 -66.9177 -66.9160 -66.9005 -66.8989 -66.8976 -66.8936
   -66.8843 -66.8832 -66.8806 -66.8794 -66.8759 -66.8749 -66.8721 -66.8718
   -66.8630 -66.8625 -66.8584 -66.8527 -66.8514 -66.8483 -66.8449 -66.8388
   -66.7057 -66.6904 -66.6864 -66.6854 -66.6561 -66.6529 -66.6521 -66.6462
   -66.6454 -66.6424 -66.6401 -66.6383 -66.6063 -66.5851 -66.5780 -66.5730
   -66.5696 -66.5581 -66.5341 -66.5252 -66.5235 -66.5194 -66.5164 -66.5154
   -38.7449 -38.7226 -38.7160 -38.7079 -38.6209 -38.6195 -38.6164 -38.5902
   -38.5859 -38.5773 -38.5725 -38.5711 -38.5567 -38.5291 -38.5174 -38.5139
   -38.5074 -38.5047 -38.5019 -38.4754 -38.4726 -38.4625 -38.4569 -38.4526
   -38.4210 -38.4203 -38.4190 -38.4010 -38.3925 -38.3903 -38.3871 -38.3795
   -38.3356 -38.3311 -38.3264 -38.3128 -38.3059 -38.3046 -38.2906 -38.2865
   -38.2844 -38.2710 -38.2675 -38.2636 -38.2500 -38.2464 -38.2451 -38.2434
   -38.2358 -38.2349 -38.2331 -38.2204 -38.2190 -38.2140 -38.2128 -38.2106
   -38.2082 -38.2057 -38.1978 -38.1933 -38.1875 -38.1798 -38.1720 -38.1693
   -38.1675 -38.1646 -38.1617 -38.1601 -38.1513 -38.1499 -38.1431 -38.1165
   -38.1119 -38.1101 -38.1049 -38.1021 -38.1005 -38.0979 -38.0938 -38.0843
   -38.0816 -38.0785 -38.0685 -38.0634 -38.0597 -38.0559 -38.0503 -38.0468
   -38.0378 -38.0339 -38.0043 -38.0007 -37.9982 -37.9961 -37.9918 -37.9845
   -37.9825 -37.9773 -37.9652 -37.9637 -37.9620 -37.9513 -37.9488 -37.9451
   -37.9202 -37.9170 -37.9108 -37.9027 -37.8978 -37.8910 -37.8897 -37.8865
   -37.8847 -37.8825 -37.8792 -37.8750 -37.8701 -37.8643 -37.8593 -37.8571
   -37.8548 -37.8519 -37.8501 -37.8470 -37.8135 -37.8110 -37.8108 -37.8010
   -37.7996 -37.7944 -37.7870 -37.7791 -37.7763 -37.7665 -37.7653 -37.7629
   -37.6715 -37.6569 -37.6414 -37.6234 -37.6193 -37.6056 -37.5993 -37.5940
   -12.3447 -11.9216 -11.9071 -11.7600 -11.7516 -11.6290 -11.5433 -11.5367
   -11.4625 -11.4531 -11.3858 -11.2411 -11.2324 -11.2113 -11.1640 -11.1581
   -11.1500 -11.0859 -10.9452 -10.8730  -9.2215  -9.2176  -9.1972  -9.1162
    -8.5713  -2.8882  -2.8781  -2.8410  -2.7284  -2.6559  -2.6435  -2.6179
    -2.6145  -2.6063  -2.4865  -2.4832  -2.3493  -2.2930  -2.2693  -2.2539
    -2.2487  -2.2232  -2.1729  -2.1150  -2.1092  -2.0640  -1.8718  -1.6949
    -1.6801  -1.6303  -1.5437  -1.5332  -1.4824  -1.4175  -1.3896  -1.3741
    -1.3454  -1.3304  -1.3220  -1.2977  -1.2548  -1.2355  -1.2253  -1.1885
    -1.1679  -1.1581  -1.1453  -1.1158  -1.0532  -0.9877  -0.9592  -0.9358
    -0.9028  -0.8671  -0.8256  -0.8008  -0.7774  -0.7496  -0.7354  -0.7324
    -0.7061  -0.6860  -0.6112  -0.5526  -0.5088  -0.3912  -0.3491  -0.3337
     0.6927   0.8493   0.8534   0.8570   1.0810   1.0856   1.0908   1.1129
     1.1463   1.1546   1.1580   1.2127   1.3048   1.5725   1.6505   1.6738
     1.8318   1.8519   1.8942   2.0304   2.0416   2.0764   2.1187   2.2065
     2.2163   2.3409   2.3503   2.3617   2.3823   2.4840   2.4878   2.5155
     2.5204   2.5226   2.5734   2.6005   2.6099   2.6171   2.6663   2.6982
     2.7774   2.7910   2.8053   2.8758   3.0523   3.1267   3.2117   3.2496
     3.2552   3.2630   3.2772   3.3182   3.4166   3.4265   3.4536   3.4577
     3.4664   3.4873   3.5942   3.6311   3.6430   3.6628   3.6664   3.7232
     3.7326   3.7540   3.7644   3.7769   3.8078   3.8279   3.8440   3.8791
     4.0333   4.0559   4.0774   4.0837   4.1003   4.1094   4.1253   4.2091
     4.2281   4.2453   4.2794   4.2858   4.3040   4.3368   4.3537   4.3650
     4.3908   4.4062   4.4495   4.4545   4.4916   4.4983   4.5103   4.5487
     4.5647   4.5922   4.6107   4.6944   4.7170   4.7517   4.7901   4.8046
     4.8405   4.8604   4.8957   4.9252   4.9420   4.9905   4.9983   5.0032
     5.0130   5.0310   5.0491   5.0863   5.1443   5.1773   5.1908   5.2086
     5.2245   5.2660   5.3523   5.3837   5.4173   5.4335   5.4500   5.5125
     5.5257   5.5394   5.5510   5.5622   5.6095   5.6241   5.6391   5.6600
     5.6687   5.7313   5.7555   5.7765   5.7868   5.8132   5.8260   5.8340
     5.8573   5.8670   5.8694   5.8825   5.8906   5.9490   5.9541   5.9685
     5.9758   6.0012   6.0181   6.0260   6.0379   6.0661   6.0673   6.0804
     6.0913   6.1076   6.1190   6.1278   6.1396   6.1625   6.1751   6.2512
     6.2757   6.2856   6.3174   6.3253   6.3408   6.3468   6.3577   6.3855
     6.3894   6.3979   6.4212   6.4462   6.4648   6.4748   6.4894   6.5101
     6.5323   6.5422   6.6017   6.6125   6.6268   6.6764   6.7041   6.7218
     6.7334   6.7645   6.7799   6.7851   6.8066   6.8348   6.8798   6.8986

          k = 0.2500 0.1443 0.0000 (108355 PWs)   bands (ev):

   -66.9495 -66.9259 -66.9183 -66.9160 -66.8999 -66.8985 -66.8976 -66.8940
   -66.8848 -66.8829 -66.8816 -66.8784 -66.8759 -66.8751 -66.8727 -66.8714
   -66.8632 -66.8611 -66.8593 -66.8529 -66.8504 -66.8491 -66.8449 -66.8387
   -66.7057 -66.6904 -66.6865 -66.6853 -66.6558 -66.6540 -66.6514 -66.6465
   -66.6448 -66.6425 -66.6396 -66.6390 -66.6064 -66.5846 -66.5788 -66.5729
   -66.5693 -66.5582 -66.5337 -66.5255 -66.5233 -66.5198 -66.5169 -66.5145
   -38.7448 -38.7226 -38.7155 -38.7085 -38.6207 -38.6187 -38.6176 -38.5895
   -38.5860 -38.5773 -38.5728 -38.5710 -38.5574 -38.5303 -38.5158 -38.5130
   -38.5083 -38.5046 -38.5018 -38.4757 -38.4730 -38.4623 -38.4580 -38.4509
   -38.4224 -38.4194 -38.4185 -38.4022 -38.3920 -38.3905 -38.3865 -38.3788
   -38.3352 -38.3322 -38.3272 -38.3133 -38.3059 -38.3041 -38.2901 -38.2862
   -38.2842 -38.2699 -38.2670 -38.2643 -38.2481 -38.2474 -38.2460 -38.2438
   -38.2360 -38.2355 -38.2328 -38.2209 -38.2186 -38.2149 -38.2131 -38.2118
   -38.2079 -38.2061 -38.1959 -38.1938 -38.1848 -38.1797 -38.1732 -38.1697
   -38.1682 -38.1642 -38.1616 -38.1592 -38.1521 -38.1497 -38.1430 -38.1147
   -38.1129 -38.1098 -38.1066 -38.1029 -38.1009 -38.0988 -38.0942 -38.0832
   -38.0821 -38.0782 -38.0660 -38.0608 -38.0583 -38.0551 -38.0548 -38.0483
   -38.0369 -38.0345 -38.0044 -37.9996 -37.9977 -37.9966 -37.9925 -37.9838
   -37.9822 -37.9764 -37.9670 -37.9629 -37.9615 -37.9527 -37.9483 -37.9453
   -37.9198 -37.9173 -37.9099 -37.9025 -37.8988 -37.8918 -37.8893 -37.8869
   -37.8854 -37.8826 -37.8790 -37.8748 -37.8696 -37.8645 -37.8588 -37.8570
   -37.8546 -37.8524 -37.8493 -37.8474 -37.8132 -37.8119 -37.8107 -37.8015
   -37.7970 -37.7958 -37.7857 -37.7805 -37.7761 -37.7664 -37.7654 -37.7630
   -37.6719 -37.6564 -37.6414 -37.6236 -37.6196 -37.6033 -37.5999 -37.5952
   -12.3445 -11.9192 -11.9088 -11.7589 -11.7555 -11.6311 -11.5405 -11.5351
   -11.4582 -11.4535 -11.3875 -11.2453 -11.2352 -11.2113 -11.1628 -11.1539
   -11.1498 -11.0875 -10.9448 -10.8729  -9.2233  -9.2164  -9.1968  -9.1161
    -8.5713  -2.8832  -2.8786  -2.8438  -2.7311  -2.6568  -2.6440  -2.6168
    -2.6125  -2.6053  -2.4862  -2.4848  -2.3523  -2.2900  -2.2669  -2.2531
    -2.2504  -2.2279  -2.1690  -2.1164  -2.1090  -2.0610  -1.8714  -1.6996
    -1.6803  -1.6323  -1.5468  -1.5286  -1.4924  -1.4135  -1.3877  -1.3764
    -1.3410  -1.3273  -1.3191  -1.2987  -1.2535  -1.2345  -1.2275  -1.1895
    -1.1735  -1.1591  -1.1405  -1.1131  -1.0555  -0.9872  -0.9521  -0.9423
    -0.9046  -0.8728  -0.8231  -0.7988  -0.7864  -0.7460  -0.7414  -0.7252
    -0.6977  -0.6777  -0.6087  -0.5623  -0.5087  -0.3963  -0.3495  -0.3298
     0.6922   0.8488   0.8532   0.8585   1.0823   1.0849   1.0893   1.1184
     1.1466   1.1489   1.1569   1.2154   1.3048   1.5735   1.6530   1.6661
     1.8342   1.8474   1.8955   2.0292   2.0441   2.0763   2.1168   2.2014
     2.2142   2.3438   2.3544   2.3651   2.3845   2.4845   2.4890   2.5156
     2.5209   2.5256   2.5732   2.6031   2.6106   2.6142   2.6651   2.7002
     2.7783   2.7916   2.8018   2.8759   3.0536   3.1251   3.2138   3.2501
     3.2556   3.2593   3.2796   3.3239   3.4136   3.4255   3.4478   3.4565
     3.4667   3.4873   3.5936   3.6219   3.6470   3.6599   3.6691   3.7245
     3.7311   3.7558   3.7602   3.7766   3.8083   3.8272   3.8425   3.8837
     4.0323   4.0572   4.0762   4.0801   4.1008   4.1145   4.1314   4.2129
     4.2240   4.2380   4.2828   4.2899   4.3086   4.3277   4.3496   4.3601
     4.3845   4.4033   4.4506   4.4655   4.4863   4.4966   4.5117   4.5563
     4.5632   4.5922   4.6094   4.6924   4.7159   4.7632   4.7927   4.8103
     4.8226   4.8634   4.8916   4.9202   4.9379   4.9892   4.9937   5.0084
     5.0177   5.0282   5.0654   5.0761   5.1567   5.1786   5.1884   5.2174
     5.2364   5.2579   5.3468   5.3729   5.4163   5.4326   5.4540   5.5149
     5.5292   5.5458   5.5533   5.5618   5.6110   5.6179   5.6334   5.6566
     5.6669   5.7297   5.7559   5.7823   5.7923   5.8101   5.8258   5.8290
     5.8519   5.8664   5.8677   5.8842   5.8986   5.9490   5.9558   5.9680
     5.9769   6.0024   6.0157   6.0324   6.0433   6.0657   6.0709   6.0779
     6.0934   6.1096   6.1136   6.1247   6.1406   6.1574   6.1737   6.2524
     6.2821   6.2858   6.3127   6.3248   6.3436   6.3487   6.3574   6.3859
     6.3914   6.3972   6.4229   6.4446   6.4616   6.4717   6.4852   6.5081
     6.5268   6.5452   6.6008   6.6093   6.6322   6.6748   6.7049   6.7258
     6.7330   6.7615   6.7780   6.7861   6.8049   6.8322   6.8847   6.8944

          k = 0.5000-0.2887 0.0000 (108310 PWs)   bands (ev):

   -66.9405 -66.9393 -66.9197 -66.9181 -66.8934 -66.8929 -66.8926 -66.8904
   -66.8883 -66.8871 -66.8811 -66.8810 -66.8775 -66.8764 -66.8758 -66.8735
   -66.8601 -66.8591 -66.8554 -66.8540 -66.8529 -66.8476 -66.8458 -66.8396
   -66.6994 -66.6985 -66.6869 -66.6858 -66.6539 -66.6499 -66.6481 -66.6477
   -66.6458 -66.6446 -66.6415 -66.6394 -66.6053 -66.5860 -66.5783 -66.5750
   -66.5689 -66.5572 -66.5320 -66.5255 -66.5233 -66.5183 -66.5175 -66.5165
   -38.7360 -38.7313 -38.7122 -38.7045 -38.6095 -38.6081 -38.6068 -38.6054
   -38.5900 -38.5874 -38.5840 -38.5818 -38.5494 -38.5444 -38.5189 -38.5158
   -38.4933 -38.4909 -38.4860 -38.4843 -38.4830 -38.4790 -38.4620 -38.4600
   -38.4082 -38.4065 -38.4049 -38.4031 -38.4011 -38.4005 -38.3824 -38.3813
   -38.3436 -38.3402 -38.3056 -38.3043 -38.2997 -38.2976 -38.2835 -38.2813
   -38.2755 -38.2745 -38.2720 -38.2701 -38.2571 -38.2556 -38.2453 -38.2447
   -38.2416 -38.2398 -38.2329 -38.2313 -38.2196 -38.2172 -38.2154 -38.2150
   -38.2038 -38.2024 -38.1989 -38.1960 -38.1952 -38.1906 -38.1654 -38.1624
   -38.1603 -38.1552 -38.1535 -38.1495 -38.1398 -38.1390 -38.1361 -38.1303
   -38.1234 -38.1205 -38.1127 -38.1042 -38.0978 -38.0954 -38.0898 -38.0889
   -38.0828 -38.0792 -38.0715 -38.0710 -38.0674 -38.0611 -38.0469 -38.0431
   -38.0411 -38.0316 -38.0037 -38.0007 -37.9985 -37.9916 -37.9870 -37.9852
   -37.9729 -37.9705 -37.9629 -37.9598 -37.9588 -37.9522 -37.9504 -37.9338
   -37.9312 -37.9209 -37.9136 -37.9081 -37.8958 -37.8938 -37.8874 -37.8859
   -37.8849 -37.8831 -37.8780 -37.8761 -37.8651 -37.8606 -37.8592 -37.8578
   -37.8547 -37.8539 -37.8522 -37.8503 -37.8117 -37.8112 -37.8049 -37.8045
   -37.7979 -37.7969 -37.7860 -37.7856 -37.7707 -37.7686 -37.7670 -37.7643
   -37.6704 -37.6550 -37.6379 -37.6191 -37.6179 -37.6138 -37.6019 -37.5953
   -12.1702 -12.1605 -11.8027 -11.7919 -11.7863 -11.7823 -11.5475 -11.5445
   -11.3851 -11.3756 -11.2718 -11.2611 -11.2502 -11.2419 -11.1868 -11.1755
   -11.0606 -11.0179 -10.9749 -10.9672  -9.2242  -9.2205  -9.1562  -9.1532
    -8.5714  -2.8580  -2.8466  -2.7544  -2.7464  -2.6937  -2.6839  -2.6742
    -2.6702  -2.5478  -2.5424  -2.4387  -2.4364  -2.2774  -2.2732  -2.2208
    -2.2164  -2.1728  -2.1710  -2.0248  -2.0129  -1.9559  -1.9510  -1.7573
    -1.7408  -1.6367  -1.6133  -1.5791  -1.5765  -1.4820  -1.4679  -1.3890
    -1.3682  -1.3561  -1.3502  -1.2840  -1.2403  -1.1940  -1.1814  -1.1681
    -1.1523  -1.1295  -1.1228  -1.0527  -1.0254  -0.9759  -0.9712  -0.9586
    -0.9214  -0.9063  -0.8175  -0.8068  -0.7722  -0.7568  -0.7309  -0.7080
    -0.6585  -0.6460  -0.5885  -0.5574  -0.5085  -0.4788  -0.3755  -0.3549
     0.8030   0.8077   0.8442   0.8476   1.0997   1.1059   1.1108   1.1194
     1.1277   1.1390   1.1805   1.1826   1.4142   1.4349   1.6708   1.7029
     1.9410   1.9631   1.9701   1.9817   2.0603   2.0888   2.1094   2.1264
     2.2450   2.2590   2.4238   2.4299   2.4386   2.4492   2.4812   2.4965
     2.5270   2.5305   2.5367   2.5468   2.6378   2.6570   2.7857   2.7911
     2.8005   2.8133   2.8681   2.8814   3.0714   3.0827   3.0871   3.0968
     3.1417   3.1442   3.2594   3.2654   3.3801   3.3812   3.4364   3.4532
     3.4670   3.4857   3.5669   3.5717   3.6698   3.6746   3.7196   3.7260
     3.7774   3.7846   3.8310   3.8499   3.9039   3.9363   3.9478   3.9582
     4.0052   4.0072   4.0147   4.0406   4.0477   4.0669   4.1704   4.1851
     4.1946   4.2002   4.2969   4.3027   4.3335   4.3683   4.3765   4.4013
     4.4086   4.4149   4.4423   4.4475   4.4673   4.4805   4.5002   4.5151
     4.5344   4.5770   4.6566   4.6657   4.6882   4.6916   4.6999   4.7026
     4.7362   4.7504   4.8553   4.8718   5.0112   5.0370   5.0518   5.0712
     5.1016   5.1170   5.1293   5.1425   5.1719   5.1813   5.1950   5.1966
     5.2424   5.2531   5.3051   5.3720   5.4031   5.4064   5.4115   5.4168
     5.4762   5.4829   5.5112   5.5613   5.5929   5.6013   5.6198   5.6361
     5.6452   5.6518   5.6686   5.6935   5.7872   5.7901   5.8109   5.8134
     5.8170   5.8379   5.8532   5.8697   5.8963   5.9162   5.9426   5.9516
     5.9558   5.9630   5.9851   5.9955   6.0409   6.0590   6.0632   6.0746
     6.1086   6.1157   6.1339   6.1693   6.2264   6.2328   6.2468   6.2494
     6.2583   6.2638   6.2834   6.2996   6.3113   6.3462   6.4039   6.4206
     6.4358   6.4441   6.4650   6.4750   6.4889   6.4981   6.5046   6.5126
     6.5207   6.5416   6.5830   6.6049   6.6576   6.6710   6.7024   6.7093
     6.7219   6.7341   6.8024   6.8289   6.9122   6.9136   6.9443   6.9587

          k =-0.5000-0.2887 0.0000 (108310 PWs)   bands (ev):

   -66.9407 -66.9390 -66.9202 -66.9179 -66.8930 -66.8922 -66.8914 -66.8903
   -66.8883 -66.8882 -66.8835 -66.8807 -66.8771 -66.8761 -66.8755 -66.8736
   -66.8595 -66.8586 -66.8563 -66.8549 -66.8514 -66.8480 -66.8462 -66.8395
   -66.6994 -66.6985 -66.6870 -66.6857 -66.6533 -66.6517 -66.6488 -66.6460
   -66.6459 -66.6431 -66.6414 -66.6407 -66.6053 -66.5851 -66.5802 -66.5743
   -66.5686 -66.5573 -66.5305 -66.5273 -66.5216 -66.5212 -66.5177 -66.5147
   -38.7346 -38.7326 -38.7115 -38.7053 -38.6117 -38.6075 -38.6057 -38.6043
   -38.5897 -38.5872 -38.5846 -38.5824 -38.5489 -38.5469 -38.5169 -38.5142
   -38.4931 -38.4912 -38.4881 -38.4851 -38.4832 -38.4794 -38.4605 -38.4587
   -38.4080 -38.4060 -38.4053 -38.4037 -38.4027 -38.4010 -38.3807 -38.3796
   -38.3430 -38.3421 -38.3068 -38.3061 -38.2987 -38.2963 -38.2826 -38.2810
   -38.2746 -38.2733 -38.2721 -38.2708 -38.2590 -38.2557 -38.2436 -38.2431
   -38.2428 -38.2402 -38.2342 -38.2331 -38.2193 -38.2186 -38.2168 -38.2140
   -38.2025 -38.2016 -38.1997 -38.1969 -38.1949 -38.1884 -38.1652 -38.1627
   -38.1592 -38.1563 -38.1533 -38.1486 -38.1397 -38.1373 -38.1356 -38.1323
   -38.1246 -38.1214 -38.1130 -38.1092 -38.0956 -38.0928 -38.0911 -38.0900
   -38.0826 -38.0799 -38.0702 -38.0696 -38.0637 -38.0579 -38.0544 -38.0443
   -38.0365 -38.0335 -38.0041 -38.0002 -37.9977 -37.9920 -37.9864 -37.9839
   -37.9719 -37.9690 -37.9651 -37.9624 -37.9579 -37.9519 -37.9498 -37.9350
   -37.9309 -37.9204 -37.9144 -37.9073 -37.8988 -37.8928 -37.8870 -37.8864
   -37.8858 -37.8838 -37.8769 -37.8755 -37.8643 -37.8614 -37.8592 -37.8563
   -37.8549 -37.8544 -37.8523 -37.8501 -37.8136 -37.8108 -37.8058 -37.8004
   -37.7993 -37.7936 -37.7883 -37.7868 -37.7700 -37.7687 -37.7673 -37.7646
   -37.6714 -37.6540 -37.6375 -37.6236 -37.6128 -37.6089 -37.6078 -37.5951
   -12.1675 -12.1621 -11.8022 -11.7970 -11.7862 -11.7824 -11.5468 -11.5414
   -11.3771 -11.3752 -11.2713 -11.2673 -11.2531 -11.2452 -11.1844 -11.1792
   -11.0549 -11.0182 -10.9779 -10.9649  -9.2262  -9.2193  -9.1566  -9.1521
    -8.5714  -2.8494  -2.8487  -2.7527  -2.7514  -2.6919  -2.6900  -2.6743
    -2.6701  -2.5477  -2.5466  -2.4401  -2.4283  -2.2749  -2.2722  -2.2198
    -2.2158  -2.1733  -2.1706  -2.0277  -2.0075  -1.9607  -1.9517  -1.7583
    -1.7482  -1.6381  -1.6241  -1.5815  -1.5629  -1.4915  -1.4718  -1.3900
    -1.3560  -1.3516  -1.3487  -1.2823  -1.2450  -1.1926  -1.1816  -1.1703
    -1.1468  -1.1360  -1.1143  -1.0457  -1.0264  -0.9876  -0.9788  -0.9570
    -0.9310  -0.8889  -0.8192  -0.8164  -0.7596  -0.7463  -0.7297  -0.7135
    -0.6559  -0.6487  -0.5866  -0.5474  -0.5199  -0.4821  -0.3758  -0.3563
     0.8010   0.8072   0.8439   0.8515   1.1029   1.1059   1.1099   1.1128
     1.1319   1.1380   1.1799   1.1873   1.4197   1.4253   1.6744   1.6954
     1.9424   1.9552   1.9691   1.9815   2.0702   2.0764   2.1115   2.1236
     2.2488   2.2531   2.4284   2.4373   2.4423   2.4494   2.4878   2.4942
     2.5267   2.5335   2.5417   2.5473   2.6412   2.6572   2.7863   2.7961
     2.7990   2.8131   2.8656   2.8771   3.0712   3.0820   3.0915   3.0960
[...]
     6.5661   6.5944   6.6065   6.6188   6.6492   6.6781   6.6996   6.7074
     6.7179   6.7531   6.7738   6.7874   6.8335   6.8517   6.9025   6.9257

          k = 0.5000-0.0000 0.0000 (108308 PWs)   bands (ev):

   -66.9549 -66.9430 -66.9424 -66.9207 -66.9110 -66.9057 -66.9032 -66.8998
   -66.8984 -66.8951 -66.8946 -66.8933 -66.8920 -66.8897 -66.8869 -66.8812
   -66.8738 -66.8706 -66.8659 -66.8642 -66.8611 -66.8610 -66.8570 -66.8518
   -66.7121 -66.7041 -66.7040 -66.6932 -66.6665 -66.6631 -66.6616 -66.6609
   -66.6571 -66.6565 -66.6544 -66.6533 -66.6215 -66.5956 -66.5947 -66.5844
   -66.5833 -66.5752 -66.5441 -66.5423 -66.5333 -66.5283 -66.5251 -66.5218
   -38.7483 -38.7331 -38.7329 -38.7109 -38.6219 -38.6202 -38.6145 -38.6075
   -38.5971 -38.5962 -38.5914 -38.5878 -38.5594 -38.5450 -38.5438 -38.5081
   -38.5044 -38.4975 -38.4958 -38.4925 -38.4834 -38.4779 -38.4770 -38.4736
   -38.4181 -38.4172 -38.4170 -38.4097 -38.4020 -38.3954 -38.3935 -38.3923
   -38.3830 -38.3210 -38.3181 -38.3162 -38.3154 -38.3038 -38.3029 -38.2927
   -38.2892 -38.2858 -38.2839 -38.2807 -38.2624 -38.2571 -38.2555 -38.2522
   -38.2516 -38.2471 -38.2455 -38.2427 -38.2327 -38.2320 -38.2261 -38.2240
   -38.2188 -38.2143 -38.2113 -38.1991 -38.1977 -38.1964 -38.1944 -38.1702
   -38.1666 -38.1627 -38.1616 -38.1614 -38.1528 -38.1506 -38.1462 -38.1380
   -38.1329 -38.1323 -38.1246 -38.1200 -38.1074 -38.0996 -38.0977 -38.0916
   -38.0911 -38.0881 -38.0880 -38.0806 -38.0774 -38.0698 -38.0577 -38.0530
   -38.0494 -38.0454 -38.0158 -38.0141 -38.0106 -38.0039 -38.0010 -37.9934
   -37.9854 -37.9799 -37.9774 -37.9692 -37.9674 -37.9651 -37.9569 -37.9562
   -37.9419 -37.9292 -37.9224 -37.9200 -37.9113 -37.9086 -37.9044 -37.9019
   -37.8937 -37.8924 -37.8899 -37.8861 -37.8782 -37.8774 -37.8752 -37.8695
   -37.8679 -37.8660 -37.8645 -37.8630 -37.8309 -37.8298 -37.8242 -37.8194
   -37.8173 -37.8084 -37.8073 -37.7999 -37.7883 -37.7808 -37.7772 -37.7750
   -37.6832 -37.6773 -37.6479 -37.6394 -37.6257 -37.6217 -37.6130 -37.6036
   -12.2311 -12.0173 -12.0157 -11.8310 -11.6873 -11.6866 -11.6505 -11.4755
   -11.4065 -11.3521 -11.3280 -11.3207 -11.2648 -11.2540 -11.1406 -11.1291
   -11.0498 -11.0482 -11.0098 -10.9315  -9.2139  -9.1648  -9.1643  -9.1250
    -8.3908  -2.9072  -2.8116  -2.7984  -2.7898  -2.6724  -2.6716  -2.6203
    -2.5887  -2.5367  -2.5314  -2.4994  -2.4959  -2.4572  -2.2844  -2.1362
    -2.1344  -2.1231  -2.0830  -2.0473  -2.0449  -1.9913  -1.9908  -1.8724
    -1.6943  -1.6865  -1.6062  -1.5876  -1.5190  -1.4570  -1.4445  -1.3693
    -1.3525  -1.3259  -1.3053  -1.2962  -1.2912  -1.2801  -1.2103  -1.1810
    -1.0982  -1.0965  -1.0501  -1.0440  -1.0283  -0.9733  -0.9016  -0.8681
    -0.8562  -0.8394  -0.7973  -0.7809  -0.7552  -0.7387  -0.7245  -0.7076
    -0.6781  -0.6259  -0.6111  -0.5490  -0.4561  -0.4477  -0.4260  -0.3047
     0.7905   0.8456   0.8473   0.8842   1.0825   1.0839   1.1298   1.1330
     1.1336   1.1917   1.1975   1.1986   1.3966   1.5244   1.5542   1.7384
     1.8919   1.9898   2.0088   2.0304   2.0976   2.1056   2.1128   2.1236
     2.2091   2.2831   2.2848   2.3487   2.4242   2.4278   2.4622   2.4656
     2.5031   2.5601   2.6204   2.6315   2.6333   2.7218   2.7318   2.7774
     2.8425   2.8450   2.8617   2.8822   2.9573   2.9591   2.9737   3.0592
     3.2041   3.2944   3.3344   3.3423   3.3791   3.3814   3.4041   3.4714
     3.4851   3.5030   3.5063   3.5882   3.5899   3.6049   3.6869   3.7477
     3.7574   3.7858   3.7946   3.8186   3.8291   3.8849   3.9060   3.9083
     4.0569   4.0690   4.0789   4.1059   4.1103   4.1264   4.1359   4.1595
     4.1806   4.2354   4.2698   4.2771   4.2991   4.3236   4.3406   4.3435
     4.3740   4.3897   4.4333   4.4577   4.4766   4.4860   4.5018   4.5152
     4.5908   4.5969   4.6110   4.6193   4.6442   4.6483   4.6757   4.7097
     4.7361   4.8701   4.9027   4.9079   4.9313   4.9584   4.9645   4.9754
     5.0210   5.0643   5.0878   5.1109   5.1667   5.1778   5.2261   5.2315
     5.2352   5.2987   5.3309   5.3557   5.3851   5.3949   5.4322   5.4714
     5.4819   5.4845   5.4946   5.5260   5.5377   5.5617   5.5739   5.6334
     5.6472   5.6614   5.6973   5.7638   5.7672   5.7713   5.7892   5.8006
     5.8210   5.8276   5.8317   5.8516   5.8760   5.8958   5.9013   5.9233
     5.9424   5.9464   5.9668   5.9700   5.9871   6.0010   6.0338   6.0755
     6.0910   6.1143   6.1305   6.1399   6.1431   6.1739   6.1854   6.2346
     6.2550   6.2576   6.2820   6.3061   6.3175   6.3436   6.3477   6.3607
     6.3951   6.4058   6.4190   6.4716   6.5121   6.5149   6.5465   6.5505
     6.5680   6.5799   6.6090   6.6124   6.6438   6.6767   6.7059   6.7157
     6.7185   6.7656   6.7753   6.7954   6.8169   6.8587   6.9014   6.9239

     the Fermi energy is     5.2438 ev

!    total energy              =  -12616.47563114 Ry
     total all-electron energy =   -103594.979438 Ry
     estimated scf accuracy    <          6.6E-11 Ry
     smearing contrib. (-TS)   =       0.00986625 Ry
     internal energy E=F+TS    =  -12616.48549739 Ry

     The total energy is F=E-TS. E is the sum of the following terms:
     one-electron contribution =  -67376.36341796 Ry
     hartree contribution      =   33803.10815443 Ry
     xc contribution           =   -1216.08968494 Ry
     ewald contribution        =   25935.22639899 Ry
     DFT-D3 Dispersion         =      -1.08551050 Ry
     one-center paw contrib.   =   -3761.28143741 Ry

     convergence has been achieved in  36 iterations

     negative rho (up, down):  2.022E-04 0.000E+00

     Forces acting on atoms (cartesian axes, Ry/au):

     atom    1 type  1   force =    -0.00001515   -0.00023161   -0.00005550
     atom    2 type  1   force =    -0.00000013   -0.00001420   -0.00005017
     atom    3 type  1   force =     0.00007363   -0.00027367    0.00016165
     atom    4 type  1   force =    -0.00001377   -0.00024599    0.00008441
     atom    5 type  1   force =    -0.00003880    0.00004936    0.00000792
     atom    6 type  1   force =    -0.00033932    0.00017002    0.00006448
     atom    7 type  2   force =     0.00014931   -0.00012201    0.00033656
     atom    8 type  2   force =    -0.00018112   -0.00051161    0.00001040
     atom    9 type  2   force =    -0.00009636   -0.00000473   -0.00030482
     atom   10 type  1   force =    -0.00011143    0.00021964   -0.00003656
     atom   11 type  1   force =    -0.00014424    0.00001352   -0.00005210
     atom   12 type  1   force =     0.00017145    0.00029479   -0.00009953
     atom   13 type  1   force =    -0.00033400    0.00015376   -0.00032925
     atom   14 type  1   force =    -0.00032414   -0.00010834   -0.00000243
     atom   15 type  1   force =    -0.00009925   -0.00017126   -0.00002173
     atom   16 type  2   force =    -0.00006038   -0.00008959    0.00010494
     atom   17 type  2   force =    -0.00018899    0.00020843   -0.00024642
     atom   18 type  2   force =     0.00022654   -0.00036090   -0.00025225
     atom   19 type  1   force =     0.00031033    0.00000554    0.00009812
     atom   20 type  1   force =     0.00035754    0.00004034    0.00007686
     atom   21 type  1   force =     0.00011331   -0.00012939    0.00020009
     atom   22 type  1   force =    -0.00020151   -0.00042556   -0.00017864
     atom   23 type  1   force =     0.00018965   -0.00001750    0.00008957
     atom   24 type  1   force =     0.00004381    0.00013122   -0.00017124
     atom   25 type  2   force =    -0.00000512   -0.00012963   -0.00014869
     atom   26 type  2   force =     0.00038088   -0.00002366    0.00000408
     atom   27 type  2   force =    -0.00018764    0.00048204   -0.00029998
     atom   28 type  1   force =    -0.00006712    0.00007589    0.00005644
     atom   29 type  1   force =    -0.00037686    0.00011686   -0.00086668
     atom   30 type  1   force =    -0.00007097   -0.00037942   -0.00007897
     atom   31 type  1   force =    -0.00027560   -0.00008715    0.00005973
     atom   32 type  1   force =    -0.00006079   -0.00036554    0.00038932
     atom   33 type  1   force =    -0.00009604    0.00003980    0.00054550
     atom   34 type  2   force =     0.00002896   -0.00014319    0.00001239
     atom   35 type  2   force =     0.00023057    0.00002861   -0.00006079
     atom   36 type  2   force =     0.00001534   -0.00015444   -0.00019069
     atom   37 type  1   force =     0.00026629   -0.00009200   -0.00002503
     atom   38 type  1   force =     0.00011906   -0.00004083    0.00005315
     atom   39 type  1   force =     0.00000971    0.00012407   -0.00028515
     atom   40 type  1   force =    -0.00001422   -0.00012380   -0.00004718
     atom   41 type  1   force =     0.00004045   -0.00019053   -0.00005984
     atom   42 type  1   force =     0.00030230   -0.00018974   -0.00001842
     atom   43 type  2   force =     0.00029859   -0.00023815    0.00029414
     atom   44 type  2   force =     0.00033885   -0.00019487   -0.00005464
     atom   45 type  2   force =    -0.00013487   -0.00015775    0.00008557
     atom   46 type  1   force =    -0.00006871   -0.00011014   -0.00006688
     atom   47 type  1   force =     0.00044388   -0.00037178   -0.00006527
     atom   48 type  1   force =    -0.00014573    0.00011267    0.00026036
     atom   49 type  1   force =     0.00022474    0.00025350   -0.00004313
     atom   50 type  1   force =     0.00018633   -0.00004593   -0.00000679
     atom   51 type  1   force =     0.00004594    0.00020306    0.00014174
     atom   52 type  2   force =    -0.00009654    0.00002350   -0.00012603
     atom   53 type  2   force =     0.00003685    0.00028156    0.00002571
     atom   54 type  2   force =    -0.00024892    0.00018268   -0.00043947
     atom   55 type  1   force =     0.00001902   -0.00024470    0.00052194
     atom   56 type  1   force =    -0.00010448   -0.00020025   -0.00015532
     atom   57 type  1   force =     0.00011628   -0.00027615   -0.00009223
     atom   58 type  1   force =    -0.00022403    0.00002303    0.00021385
     atom   59 type  1   force =     0.00039096    0.00019486    0.00008424
     atom   60 type  1   force =     0.00018389    0.00010426    0.00020070
     atom   61 type  2   force =    -0.00007046    0.00036379    0.00039037
     atom   62 type  2   force =     0.00010786    0.00055074   -0.00004409
     atom   63 type  2   force =    -0.00009875   -0.00006020    0.00020491
     atom   64 type  1   force =    -0.00012100   -0.00007786   -0.00009783
     atom   65 type  1   force =    -0.00001140    0.00000299    0.00035202
     atom   66 type  1   force =     0.00001364    0.00056684   -0.00033959
     atom   67 type  1   force =    -0.00003302    0.00012469   -0.00032891
     atom   68 type  1   force =    -0.00062396   -0.00015278    0.00000431
     atom   69 type  1   force =    -0.00003774    0.00032154   -0.00038484
     atom   70 type  2   force =     0.00012995    0.00003960    0.00027808
     atom   71 type  2   force =    -0.00022962    0.00021035   -0.00010128
     atom   72 type  2   force =     0.00007965    0.00015866    0.00014122
     atom   73 type  3   force =    -0.00027453    0.00040478   -0.00025864
     atom   74 type  4   force =    -0.00011982   -0.00013488    0.00032089
     atom   75 type  4   force =     0.00051039    0.00033775    0.00030292
     atom   76 type  4   force =     0.00000791   -0.00058939    0.00004581
     atom   77 type  4   force =    -0.00021734    0.00086638    0.00026261

     Total force =     0.003501     Total SCF correction =     0.000044
     Energy error            =      2.6E-05 Ry
     Gradient error          =      8.7E-04 Ry/Bohr

     bfgs converged in  45 scf cycles and  44 bfgs steps
     (criteria: energy <  1.0E-04 Ry, force <  1.0E-03 Ry/Bohr)

     End of BFGS Geometry Optimization

     Final energy             =  -12616.4756311394 Ry

     File ./Cr2N_CH4_R1.bfgs deleted, as requested
Begin final coordinates

ATOMIC_POSITIONS (angstrom)
Cr              -1.5891338544        2.7673849352        8.2237376631
Cr               3.1951646913       -0.0000968709        8.2314139433
Cr               0.7817157183        1.3551489843        8.2293187016
Cr               1.6355980684        2.8239415140        6.0977981260
Cr              -0.7417720074        1.2915931678        6.0982070361
Cr               1.4960856154        0.0014675898        6.1010683835
N                0.0053106043        0.0000942094        5.0563140383
N                2.3793056080        1.3733479153        7.0886643709
N                0.0050799792        2.7455952525        7.0810287035
Cr              -1.6634164040        2.8481345768       12.4918786318
Cr               3.2935073162       -0.0029112827       12.5009439758
Cr               0.7064248772        1.2156292312       12.4803406487
Cr               1.5868320919        2.7696097808       10.4400322701
Cr              -0.7713562995        1.3618800550       10.4255861996
Cr               1.5615251941       -0.0022007385       10.4179348253
N                0.0025792694        0.0049989607        9.3093205603
N                2.3688458633        1.3713415170       11.5435633872
N                0.0165656667        2.7601349146       11.5767648534
Cr              -3.9687558356        6.8828266928        8.2282089791
Cr               0.8221893737        4.1161921301        8.2261081884
Cr              -1.5894450964        5.4639408266        8.2231157359
Cr              -0.7422852992        6.9412410110        6.0978164441
Cr              -3.1209912176        5.4068764220        6.1020818514
Cr              -0.8817594827        4.1151100822        6.0929677549
N               -2.3772303998        4.1157467784        5.0571131087
N                0.0041005866        5.4856773089        7.0789266669
N               -2.3715537803        6.8571804402        7.0858748948
Cr              -4.0125463382        6.9594862091       12.5072914894
Cr               0.8649462025        4.1150254430       12.6304121110
Cr              -1.6612560684        5.3774040504       12.4935647951
Cr              -0.7720425822        6.8691513045       10.4267190042
Cr              -3.1472076483        5.4714975977       10.4088162250
Cr              -0.7987152181        4.1136453633       10.4268624571
N               -2.3586521417        4.1155504118        9.3136104299
N                0.0148145939        5.4695012619       11.5737635755
N               -2.3716846177        6.8613211177       11.5337224695
Cr               3.1542574467        2.7678888296        8.2323464415
Cr               7.9462162547        0.0007727423        8.2297602863
Cr               5.5353981368        1.3474656287        8.2302341251
Cr               6.3819591105        2.8249426620        6.1028669180
Cr               4.0088775516        1.2940225548        6.1018175633
Cr               6.2452731279        0.0014621977        6.0997996347
N                4.7538261892        0.0047643090        5.0559805212
N                7.1306501558        1.3735626209        7.0852225458
N                4.7526038975        2.7440805654        7.0928038061
Cr               3.1419260086        2.8233829703       12.4759634555
Cr               8.0403202447        0.0004359323       12.4999602901
Cr               5.4891734282        1.2635456848       12.5040798923
Cr               6.3562232345        2.7584889754       10.4094650463
Cr               3.9701314117        1.3504411290       10.4262667371
Cr               6.3135429791       -0.0024213526       10.4171933193
N                4.7547218941       -0.0058578150        9.3094390768
N                7.1310950748        1.3647607172       11.5303291804
N                4.7721351711        2.7435761293       11.5310871123
Cr               0.7824815088        6.8774254157        8.2256084631
Cr               5.5717788624        4.1163449475        8.2337454212
Cr               3.1536165163        5.4639788653        8.2313812088
Cr               4.0103288868        6.9385156772        6.0993730748
Cr               1.6351853934        5.4059422709        6.0962071433
Cr               3.8729237392        4.1145878984        6.1015602449
N                2.3840852297        4.1136896644        5.0548287532
N                4.7512167422        5.4861930538        7.0909291042
N                2.3793429044        6.8582955243        7.0846340218
Cr               0.7104019302        7.0028788121       12.4848700989
Cr               5.7016899109        4.1140977067       12.4977423448
Cr               3.1397433578        5.3991986773       12.4769148381
Cr               3.9729238759        6.8776075196       10.4264806822
Cr               1.5854341859        5.4568596087       10.4398241170
Cr               3.9440749304        4.1121711321       10.4166846112
N                2.3713376037        4.1150150868        9.3202669929
N                4.7700622565        5.4826276846       11.5300848847
N                2.3694969874        6.8534273807       11.5416134667
C                0.8557722852        4.1100727338       15.1528699858
H               -0.0097421608        4.4863238399       15.7059420989
H                1.7087630222        3.8908749512       15.8019637650
H                0.5669050820        3.1708554963       14.6375848619
H                1.1953137623        4.9376512177       14.4653041252
End final coordinates



     Writing all to output data dir ./Cr2N_CH4_R1.save/ :
     XML data file, charge density, pseudopotentials, collected wavefunctions
 
     init_run     :     18.39s CPU     19.29s WALL (       1 calls)
     electrons    :  77087.32s CPU  79256.31s WALL (      45 calls)
     update_pot   :     55.48s CPU     58.16s WALL (      44 calls)
     forces       :    456.15s CPU    473.99s WALL (      45 calls)
     force_dftd3  :      9.65s CPU     10.22s WALL (      45 calls)

     Called by init_run:
     wfcinit      :     14.18s CPU     14.68s WALL (       1 calls)
     potinit      :      1.04s CPU      1.18s WALL (       1 calls)
     hinit0       :      0.35s CPU      0.40s WALL (       1 calls)

     Called by electrons:
     c_bands      :  63074.76s CPU  64473.08s WALL (    1996 calls)
     sum_band     :  11045.63s CPU  11451.70s WALL (    1996 calls)
     v_of_rho     :   1149.56s CPU   1230.96s WALL (    2017 calls)
     newd         :    867.55s CPU   1118.10s WALL (    2017 calls)
     PAW_pot      :    729.37s CPU    738.90s WALL (    2061 calls)
     mix_rho      :    162.97s CPU    174.82s WALL (    1996 calls)
     energy_dftd3 :      5.13s CPU      5.16s WALL (      45 calls)

     Called by c_bands:
     init_us_2    :   1151.97s CPU   1167.99s WALL (   12246 calls)
     cegterg      :  59147.11s CPU  60508.01s WALL (    5988 calls)

     Called by *egterg:
     cdiaghg      :   1968.70s CPU   1991.65s WALL (   18444 calls)
     h_psi        :  29669.04s CPU  30274.74s WALL (   18651 calls)
     s_psi        :   6915.63s CPU   6990.12s WALL (   18651 calls)
     g_psi        :    133.96s CPU    135.76s WALL (   12660 calls)

     Called by h_psi:
     h_psi:calbec :   7006.79s CPU   7084.68s WALL (   18651 calls)
     vloc_psi     :  15488.37s CPU  15769.82s WALL (   18651 calls)
                                        0.00s GPU  (   18651 calls)
     add_vuspsi   :   6939.40s CPU   7016.70s WALL (   18651 calls)

     General routines
     calbec       :  10657.41s CPU  10773.55s WALL (   25311 calls)
     fft          :    910.42s CPU    983.21s WALL (   26694 calls)
     ffts         :     12.00s CPU     13.64s WALL (    4013 calls)
     fftw         :  15256.89s CPU  15520.13s WALL (14902844 calls)
     interpolate  :     66.57s CPU     73.72s WALL (    2017 calls)
 
     Parallel routines
 
     PWSCF        :     21h35m CPU     22h12m WALL

 
   This run was terminated on:   2:55:52  16May2026            

=------------------------------------------------------------------------------=
   JOB DONE.
=------------------------------------------------------------------------------=
