
     Program PWSCF v.7.5 starts on  4Jun2026 at  2:28:45 

     This program is part of the open-source Quantum ESPRESSO suite
     for quantum simulation of materials; please cite
         "P. Giannozzi et al., J. Phys.:Condens. Matter 21 395502 (2009);
         "P. Giannozzi et al., J. Phys.:Condens. Matter 29 465901 (2017);
         "P. Giannozzi et al., J. Chem. Phys. 152 154105 (2020);
          URL http://www.quantum-espresso.org", 
     in publications or presentations arising from this work. More details at
     http://www.quantum-espresso.org/quote

     Parallel version (MPI & OpenMP), running on      64 processor cores
     Number of MPI processes:                64
     Threads/MPI process:                     1

     MPI processes distributed on     1 nodes
     548466 MiB available memory on the printing compute node when the environment starts
 
     Reading input from generated_inputs/adsorcion/pw-CH4-H22_Rot90_hollow_.in
Warning: card &CELL ignored

     Current dimensions of program PWSCF are:
     Max number of different atomic species (ntypx) = 10
     Max number of k-points (npk) =  40000
     Max angular momentum in pseudopotentials (lmaxx) =  4
     file Cr.pbe-spn-kjpaw_psl.1.0.0.UPF: wavefunction(s)  3S 3P 3D renormalized
     file N.pbe-n-kjpaw_psl.1.0.0.UPF: wavefunction(s)  2S renormalized
     file C.pbe-n-kjpaw_psl.1.0.0.UPF: wavefunction(s)  2S 2P renormalized
     file H.pbe-kjpaw_psl.1.0.0.UPF: wavefunction(s)  1S renormalized
 
     K-points division:     npool     =       4
     R & G space division:  proc/nbgrp/npool/nimage =      16
     Subspace diagonalization in iterative solution of the eigenvalue problem:
     one sub-group per band group will be used
     scalapack distributed-memory algorithm (size of sub-group:  4*  4 procs)

 
     Parallelization info
     --------------------
     sticks:   dense  smooth     PW     G-vecs:    dense   smooth      PW
     Min        1166     388    102               281408    54158    7274
     Max        1167     389    103               281417    54165    7281
     Sum       18661    6217   1639              4502593   866593  116429
 
     Using Slab Decomposition
 


     bravais-lattice index     =            0
     lattice parameter (alat)  =      17.9576  a.u.
     unit-cell volume          =   10952.5767 (a.u.)^3
     number of atoms/cell      =           77
     number of atomic types    =            4
     number of electrons       =       800.00
     number of Kohn-Sham states=          480
     kinetic-energy cutoff     =      70.0000  Ry
     charge density cutoff     =     840.0000  Ry
     scf convergence threshold =      1.0E-08
     mixing beta               =       0.2000
     number of iterations used =            8  plain     mixing
     energy convergence thresh.=      1.0E-04
     force convergence thresh. =      1.0E-03
     Exchange-correlation= SLA  PW   PBX  PBC
                           (   1   4   3   4   0   0   0)
     nstep                     =          200


     celldm(1)=  17.957575  celldm(2)=   0.000000  celldm(3)=   0.000000
     celldm(4)=   0.000000  celldm(5)=   0.000000  celldm(6)=   0.000000

     crystal axes: (cart. coord. in units of alat)
               a(1) = (   1.000000   0.000000   0.000000 )  
               a(2) = (  -0.500000   0.866025   0.000000 )  
               a(3) = (   0.000000   0.000000   2.183951 )  

     reciprocal axes: (cart. coord. in units 2 pi/alat)
               b(1) = (  1.000000  0.577351  0.000000 )  
               b(2) = (  0.000000  1.154701  0.000000 )  
               b(3) = (  0.000000  0.000000  0.457886 )  


     PseudoPot. # 1 for Cr read from file:
     pseudo/Cr.pbe-spn-kjpaw_psl.1.0.0.UPF
     MD5 check sum: 198f1a2427a48552563eee314eba32ba
     Pseudo is Projector augmented-wave + core cor, Zval = 14.0
     Generated using &quot;atomic&quot; code by A. Dal Corso  v.6.3
     Shape of augmentation charge: PSQ
     Using radial grid of 1183 points,  6 beta functions with: 
                l(1) =   0
                l(2) =   0
                l(3) =   1
                l(4) =   1
                l(5) =   2
                l(6) =   2
     Q(r) pseudized with 0 coefficients 


     PseudoPot. # 2 for N  read from file:
     pseudo/N.pbe-n-kjpaw_psl.1.0.0.UPF
     MD5 check sum: 14c48229446f9f2d411169a3abcbc3fa
     Pseudo is Projector augmented-wave + core cor, Zval =  5.0
     Generated using &quot;atomic&quot; code by A. Dal Corso  v.6.3
     Shape of augmentation charge: PSQ
     Using radial grid of 1085 points,  4 beta functions with: 
                l(1) =   0
                l(2) =   0
                l(3) =   1
                l(4) =   1
     Q(r) pseudized with 0 coefficients 


     PseudoPot. # 3 for C  read from file:
     pseudo/C.pbe-n-kjpaw_psl.1.0.0.UPF
     MD5 check sum: 5f16ad9a65e90284d1d834d4ab3b0f7d
     Pseudo is Projector augmented-wave + core cor, Zval =  4.0
     Generated using &quot;atomic&quot; code by A. Dal Corso  v.6.3
     Shape of augmentation charge: PSQ
     Using radial grid of 1073 points,  4 beta functions with: 
                l(1) =   0
                l(2) =   0
                l(3) =   1
                l(4) =   1
     Q(r) pseudized with 0 coefficients 


     PseudoPot. # 4 for H  read from file:
     pseudo/H.pbe-kjpaw_psl.1.0.0.UPF
     MD5 check sum: d81a744832360e4a8af0b0b5b123bc2a
     Pseudo is Projector augmented-wave, Zval =  1.0
     Generated using &quot;atomic&quot; code by A. Dal Corso  v.6.3MaX
     Shape of augmentation charge: PSQ
     Using radial grid of  929 points,  2 beta functions with: 
                l(1) =   0
                l(2) =   0
     Q(r) pseudized with 0 coefficients 


     atomic species   valence    mass     pseudopotential
     Cr               14.00    51.99610     Cr( 1.00)
     N                 5.00    14.00670     N ( 1.00)
     C                 4.00    12.01100     C ( 1.00)
     H                 1.00     1.00800     H ( 1.00)

     No symmetry found



   Cartesian axes

     site n.     atom                  positions (alat units)
         1        Cr     tau(   1) = (  -0.1681591   0.2912601   0.8673998  )
         2        Cr     tau(   2) = (   0.3363182   0.0000000   0.8673998  )
         3        Cr     tau(   3) = (   0.0818405   0.1417518   0.8673993  )
         4        Cr     tau(   4) = (   0.1684970   0.2918454   0.6425759  )
         5        Cr     tau(   5) = (  -0.0815030   0.1411673   0.6425759  )
         6        Cr     tau(   6) = (   0.1630059   0.0000000   0.6425759  )
         7        N      tau(   7) = (   0.0000000   0.0000000   0.5261641  )
         8        N      tau(   8) = (   0.2500000   0.1443376   0.7485579  )
         9        N      tau(   9) = (   0.0000000   0.2886752   0.7485579  )
        10        Cr     tau(  10) = (  -0.1730001   0.2996450   1.3148727  )
        11        Cr     tau(  11) = (   0.3460003   0.0000000   1.3148727  )
        12        Cr     tau(  12) = (   0.0770029   0.1333729   1.3148745  )
        13        Cr     tau(  13) = (   0.1677092   0.2904808   1.0968932  )
        14        Cr     tau(  14) = (  -0.0822901   0.1425306   1.0968938  )
        15        Cr     tau(  15) = (   0.1645802   0.0000000   1.0968938  )
        16        N      tau(  16) = (   0.0000000   0.0000000   0.9808490  )
        17        N      tau(  17) = (   0.2500004   0.1443372   1.2145625  )
        18        N      tau(  18) = (  -0.0000005   0.2886753   1.2145625  )
        19        Cr     tau(  19) = (  -0.4181595   0.7242736   0.8673993  )
        20        Cr     tau(  20) = (   0.0863184   0.4330126   0.8674001  )
        21        Cr     tau(  21) = (  -0.1681593   0.5747652   0.8674001  )
        22        Cr     tau(  22) = (  -0.0815030   0.7248581   0.6425759  )
        23        Cr     tau(  23) = (  -0.3315030   0.5741800   0.6425759  )
        24        Cr     tau(  24) = (  -0.0869941   0.4330127   0.6425759  )
        25        N      tau(  25) = (  -0.2500000   0.4330127   0.5261641  )
        26        N      tau(  26) = (   0.0000000   0.5773503   0.7485581  )
        27        N      tau(  27) = (  -0.2500000   0.7216878   0.7485579  )
        28        Cr     tau(  28) = (  -0.4229971   0.7326525   1.3148745  )
        29        Cr     tau(  29) = (   0.0959968   0.4330121   1.3148749  )
        30        Cr     tau(  30) = (  -0.1729989   0.5663837   1.3148749  )
        31        Cr     tau(  31) = (  -0.0822898   0.7234940   1.0968932  )
        32        Cr     tau(  32) = (  -0.3322908   0.5755446   1.0968932  )
        33        Cr     tau(  33) = (  -0.0854193   0.4330133   1.0968932  )
        34        N      tau(  34) = (  -0.2500001   0.4330128   0.9808490  )
        35        N      tau(  35) = (   0.0000000   0.5773503   1.2145635  )
        36        N      tau(  36) = (  -0.2499996   0.7216882   1.2145625  )
        37        Cr     tau(  37) = (   0.3318407   0.2912602   0.8674001  )
        38        Cr     tau(  38) = (   0.8363191   0.0000000   0.8673993  )
        39        Cr     tau(  39) = (   0.5818409   0.1417524   0.8674001  )
        40        Cr     tau(  40) = (   0.6684970   0.2918454   0.6425759  )
        41        Cr     tau(  41) = (   0.4184970   0.1411673   0.6425759  )
        42        Cr     tau(  42) = (   0.6630059   0.0000000   0.6425759  )
        43        N      tau(  43) = (   0.5000000   0.0000000   0.5261641  )
        44        N      tau(  44) = (   0.7500000   0.1443376   0.7485579  )
        45        N      tau(  45) = (   0.5000000   0.2886751   0.7485581  )
        46        Cr     tau(  46) = (   0.3270011   0.2996417   1.3148749  )
        47        Cr     tau(  47) = (   0.8459942   0.0000000   1.3148745  )
        48        Cr     tau(  48) = (   0.5770021   0.1333704   1.3148749  )
        49        Cr     tau(  49) = (   0.6677091   0.2904819   1.0968932  )
        50        Cr     tau(  50) = (   0.4177102   0.1425314   1.0968932  )
        51        Cr     tau(  51) = (   0.6645817   0.0000000   1.0968932  )
        52        N      tau(  52) = (   0.5000001   0.0000000   0.9808490  )
        53        N      tau(  53) = (   0.7500001   0.1443381   1.2145625  )
        54        N      tau(  54) = (   0.5000000   0.2886751   1.2145635  )
        55        Cr     tau(  55) = (   0.0818409   0.7242730   0.8674001  )
        56        Cr     tau(  56) = (   0.5863184   0.4330128   0.8674001  )
        57        Cr     tau(  57) = (   0.3318409   0.5747653   0.8673998  )
        58        Cr     tau(  58) = (   0.4184970   0.7248581   0.6425759  )
        59        Cr     tau(  59) = (   0.1684970   0.5741800   0.6425759  )
        60        Cr     tau(  60) = (   0.4130059   0.4330127   0.6425759  )
        61        N      tau(  61) = (   0.2500000   0.4330127   0.5261641  )
        62        N      tau(  62) = (   0.5000000   0.5773502   0.7485579  )
        63        N      tau(  63) = (   0.2500000   0.7216878   0.7485579  )
        64        Cr     tau(  64) = (   0.0770021   0.7326550   1.3148749  )
        65        Cr     tau(  65) = (   0.5959968   0.4330133   1.3148749  )
        66        Cr     tau(  66) = (   0.3269999   0.5663804   1.3148727  )
        67        Cr     tau(  67) = (   0.4177099   0.7234948   1.0968938  )
        68        Cr     tau(  68) = (   0.1677091   0.5755435   1.0968932  )
        69        Cr     tau(  69) = (   0.4145807   0.4330121   1.0968932  )
        70        N      tau(  70) = (   0.2499999   0.4330126   0.9808490  )
        71        N      tau(  71) = (   0.4999995   0.5773501   1.2145625  )
        72        N      tau(  72) = (   0.2500001   0.7216873   1.2145625  )
        73        C      tau(  73) = (   0.2499993   0.4330114   1.5915628  )
        74        H      tau(  74) = (   0.1837762   0.4992344   1.6577858  )
        75        H      tau(  75) = (   0.3162223   0.3667884   1.6577858  )
        76        H      tau(  76) = (   0.1837762   0.3667884   1.5253398  )
        77        H      tau(  77) = (   0.3162223   0.4992344   1.5253398  )

     --------------------------------------------
     DFT-D3 Dispersion Correction (3-body terms):
     --------------------------------------------
       Reference C6 values for interpolation: 

         atom   Coordination number   C6
         H          0.912             6.05
         H          0.000            15.18
         C          0.000            98.23
         C          0.987            86.49
         C          1.998            58.72
         C          2.999            51.56
         C          3.984            36.41
         N          0.000            50.54
         N          0.994            44.25
         N          2.014            39.35
         N          2.990            31.16
         Cr         0.000          1381.48
         Cr         1.827           571.38
         Cr        10.619           306.69

       Values used:

         atom   Coordination number  R0_AB[au]  C6      C8
         Cr        12.627            3.252    306.69  28303.74
         Cr        12.627            3.252    306.69  28303.74
         Cr        12.627            3.252    306.69  28303.74
         Cr        10.143            3.252    306.69  28303.74
         Cr        10.143            3.252    306.69  28303.74
         Cr        10.143            3.252    306.69  28303.74
         N          3.022            2.478     31.29    690.36
         N          6.023            2.478     31.16    687.49
         N          6.023            2.478     31.16    687.49
         Cr         9.071            3.252    306.69  28303.74
         Cr         9.071            3.252    306.69  28303.74
         Cr         9.074            3.252    306.69  28303.74
         Cr        12.748            3.252    306.69  28303.74
         Cr        12.748            3.252    306.69  28303.74
         Cr        12.748            3.252    306.69  28303.74
         N          6.047            2.478     31.16    687.49
         N          6.032            2.478     31.16    687.49
         N          6.032            2.478     31.16    687.49
         Cr        12.627            3.252    306.69  28303.74
         Cr        12.627            3.252    306.69  28303.74
         Cr        12.627            3.252    306.69  28303.74
         Cr        10.143            3.252    306.69  28303.74
         Cr        10.143            3.252    306.69  28303.74
         Cr        10.143            3.252    306.69  28303.74
         N          3.022            2.478     31.29    690.36
         N          6.023            2.478     31.16    687.49
         N          6.023            2.478     31.16    687.49
         Cr         9.071            3.252    306.69  28303.74
         Cr         9.198            3.252    306.69  28303.74
         Cr         9.071            3.252    306.69  28303.74
         Cr        12.748            3.252    306.69  28303.74
         Cr        12.748            3.252    306.69  28303.74
         Cr        12.748            3.252    306.69  28303.74
         N          6.047            2.478     31.16    687.49
         N          6.032            2.478     31.16    687.49
         N          6.032            2.478     31.16    687.49
         Cr        12.627            3.252    306.69  28303.74
         Cr        12.627            3.252    306.69  28303.74
         Cr        12.627            3.252    306.69  28303.74
         Cr        10.143            3.252    306.69  28303.74
         Cr        10.143            3.252    306.69  28303.74
         Cr        10.143            3.252    306.69  28303.74
         N          3.022            2.478     31.29    690.36
         N          6.023            2.478     31.16    687.49
         N          6.023            2.478     31.16    687.49
         Cr         9.151            3.252    306.69  28303.74
         Cr         9.071            3.252    306.69  28303.74
         Cr         9.071            3.252    306.69  28303.74
         Cr        12.748            3.252    306.69  28303.74
         Cr        12.748            3.252    306.69  28303.74
         Cr        12.748            3.252    306.69  28303.74
         N          6.047            2.478     31.16    687.49
         N          6.032            2.478     31.16    687.49
         N          6.032            2.478     31.16    687.49
         Cr        12.627            3.252    306.69  28303.74
         Cr        12.627            3.252    306.69  28303.74
         Cr        12.627            3.252    306.69  28303.74
         Cr        10.143            3.252    306.69  28303.74
         Cr        10.143            3.252    306.69  28303.74
         Cr        10.143            3.252    306.69  28303.74
         N          3.022            2.478     31.29    690.36
         N          6.023            2.478     31.16    687.49
         N          6.023            2.478     31.16    687.49
         Cr         9.073            3.252    306.69  28303.74
         Cr         9.073            3.252    306.69  28303.74
         Cr         9.296            3.252    306.69  28303.74
         Cr        12.748            3.252    306.69  28303.74
         Cr        12.748            3.252    306.69  28303.74
         Cr        12.748            3.252    306.69  28303.74
         N          6.047            2.478     31.16    687.49
         N          6.032            2.478     31.16    687.49
         N          6.032            2.478     31.16    687.49
         C          4.143            2.750     36.49   1055.40
         H          0.998            2.062      6.18     74.75
         H          0.998            2.062      6.18     74.75
         H          1.092            2.062      6.12     73.97
         H          1.178            2.062      6.09     73.60

         Molecular C6 ( Ry / a.u.^6 ) =    974426.38


     number of k points=    10  Methfessel-Paxton smearing, width (Ry)=  0.0200
                       cart. coord. in units 2pi/alat
        k(    1) = (   0.0000000   0.0000000   0.0000000), wk =   0.1250000
        k(    2) = (   0.0000000   0.2886753   0.0000000), wk =   0.2500000
        k(    3) = (   0.0000000  -0.5773505   0.0000000), wk =   0.1250000
        k(    4) = (   0.2500000   0.4330129   0.0000000), wk =   0.2500000
        k(    5) = (  -0.2500000   0.1443376   0.0000000), wk =   0.2500000
        k(    6) = (   0.2500000   0.1443376   0.0000000), wk =   0.2500000
        k(    7) = (   0.5000000  -0.2886753   0.0000000), wk =   0.1250000
        k(    8) = (  -0.5000000  -0.2886753   0.0000000), wk =   0.1250000
        k(    9) = (  -0.2500000   0.4330129   0.0000000), wk =   0.2500000
        k(   10) = (   0.5000000  -0.0000000   0.0000000), wk =   0.2500000

     Dense  grid:  4502593 G-vectors     FFT dimensions: ( 180, 180, 375)

     Smooth grid:   866593 G-vectors     FFT dimensions: (  96,  96, 216)

     Estimated max dynamical RAM per process >     867.27 MB

     Estimated total dynamical RAM >      50.98 GB

     Initial potential from superposition of free atoms

     starting charge     799.9627, renormalised to     800.0000

     negative rho (up, down):  3.835E-04 0.000E+00
     Starting wfcs are  584 randomized atomic wfcs
     Checking if some PAW data can be deallocated... 

     total cpu time spent up to now is       19.8 secs

     Self-consistent Calculation

     iteration #  1     ecut=    70.00 Ry     beta= 0.20
     Davidson diagonalization with overlap
     ethr =  1.00E-02,  avg # of iterations =  2.7

     negative rho (up, down):  1.517E-04 0.000E+00

     total cpu time spent up to now is       65.6 secs

     total energy              =  -12610.60634400 Ry
     estimated scf accuracy    <      29.22920423 Ry

     iteration #  2     ecut=    70.00 Ry     beta= 0.20
     Davidson diagonalization with overlap
     ethr =  3.65E-03,  avg # of iterations =  6.4

     negative rho (up, down):  4.539E-04 0.000E+00

     total cpu time spent up to now is      121.3 secs

     total energy              =  -12600.13190451 Ry
     estimated scf accuracy    <     678.50227386 Ry

     iteration #  3     ecut=    70.00 Ry     beta= 0.20
     Davidson diagonalization with overlap
     ethr =  3.65E-03,  avg # of iterations =  3.0

     negative rho (up, down):  6.666E-04 0.000E+00

     total cpu time spent up to now is      163.3 secs

     total energy              =  -12608.77049458 Ry
     estimated scf accuracy    <     494.88149219 Ry

     iteration #  4     ecut=    70.00 Ry     beta= 0.20
     Davidson diagonalization with overlap
     ethr =  3.65E-03,  avg # of iterations =  2.0

     negative rho (up, down):  3.068E-04 0.000E+00

     total cpu time spent up to now is      203.4 secs

     total energy              =  -12614.95455827 Ry
     estimated scf accuracy    <      82.53873115 Ry

     iteration #  5     ecut=    70.00 Ry     beta= 0.20
     Davidson diagonalization with overlap
     ethr =  3.65E-03,  avg # of iterations =  1.3

     negative rho (up, down):  4.027E-04 0.000E+00

     total cpu time spent up to now is      240.2 secs

     total energy              =  -12615.64621781 Ry
     estimated scf accuracy    <      12.54891614 Ry

     iteration #  6     ecut=    70.00 Ry     beta= 0.20
     Davidson diagonalization with overlap
     ethr =  1.57E-03,  avg # of iterations =  2.0

     negative rho (up, down):  4.748E-04 0.000E+00

     total cpu time spent up to now is      280.4 secs

     total energy              =  -12616.17822252 Ry
     estimated scf accuracy    <       3.80212371 Ry

     iteration #  7     ecut=    70.00 Ry     beta= 0.20
     Davidson diagonalization with overlap
     ethr =  4.75E-04,  avg # of iterations = 12.9

     negative rho (up, down):  4.834E-04 0.000E+00

     total cpu time spent up to now is      331.8 secs

     total energy              =  -12616.33457597 Ry
     estimated scf accuracy    <       2.00997187 Ry

     iteration #  8     ecut=    70.00 Ry     beta= 0.20
     Davidson diagonalization with overlap
     ethr =  2.51E-04,  avg # of iterations =  2.2

     negative rho (up, down):  5.078E-04 0.000E+00

     total cpu time spent up to now is      372.3 secs

     total energy              =  -12616.35820580 Ry
     estimated scf accuracy    <       0.90610954 Ry

     iteration #  9     ecut=    70.00 Ry     beta= 0.20
     Davidson diagonalization with overlap
     ethr =  1.13E-04,  avg # of iterations =  7.0

     negative rho (up, down):  4.012E-04 0.000E+00

     total cpu time spent up to now is      417.2 secs

     total energy              =  -12616.35801678 Ry
     estimated scf accuracy    <       0.62072671 Ry

     iteration # 10     ecut=    70.00 Ry     beta= 0.20
     Davidson diagonalization with overlap
     ethr =  7.76E-05,  avg # of iterations =  2.4

     negative rho (up, down):  3.803E-04 0.000E+00

     total cpu time spent up to now is      458.0 secs

     total energy              =  -12616.35571523 Ry
     estimated scf accuracy    <       0.46242333 Ry

     iteration # 11     ecut=    70.00 Ry     beta= 0.20
     Davidson diagonalization with overlap
     ethr =  5.78E-05,  avg # of iterations =  8.1

     negative rho (up, down):  4.000E-04 0.000E+00

     total cpu time spent up to now is      512.3 secs

     total energy              =  -12616.36653473 Ry
     estimated scf accuracy    <       0.29450445 Ry

     iteration # 12     ecut=    70.00 Ry     beta= 0.20
     Davidson diagonalization with overlap
     ethr =  3.68E-05,  avg # of iterations = 12.9

     negative rho (up, down):  2.788E-04 0.000E+00

     total cpu time spent up to now is      564.9 secs

     total energy              =  -12616.36268755 Ry
     estimated scf accuracy    <       0.52943590 Ry

     iteration # 13     ecut=    70.00 Ry     beta= 0.20
     Davidson diagonalization with overlap
     ethr =  3.68E-05,  avg # of iterations =  1.1

     negative rho (up, down):  2.409E-04 0.000E+00

     total cpu time spent up to now is      601.4 secs

     total energy              =  -12616.37037158 Ry
     estimated scf accuracy    <       0.12362680 Ry

     iteration # 14     ecut=    70.00 Ry     beta= 0.20
     Davidson diagonalization with overlap
     ethr =  1.55E-05,  avg # of iterations =  3.7

     negative rho (up, down):  2.031E-04 0.000E+00

     total cpu time spent up to now is      644.1 secs

     total energy              =  -12616.37165270 Ry
     estimated scf accuracy    <       0.05549580 Ry

     iteration # 15     ecut=    70.00 Ry     beta= 0.20
     Davidson diagonalization with overlap
     ethr =  6.94E-06,  avg # of iterations =  6.4

     negative rho (up, down):  1.967E-04 0.000E+00

     total cpu time spent up to now is      690.6 secs

     total energy              =  -12616.36985785 Ry
     estimated scf accuracy    <       0.30748509 Ry

     iteration # 16     ecut=    70.00 Ry     beta= 0.20
     Davidson diagonalization with overlap
     ethr =  6.94E-06,  avg # of iterations =  1.1

     negative rho (up, down):  1.925E-04 0.000E+00

     total cpu time spent up to now is      727.0 secs

     total energy              =  -12616.37381197 Ry
     estimated scf accuracy    <       0.01851371 Ry

     iteration # 17     ecut=    70.00 Ry     beta= 0.20
     Davidson diagonalization with overlap
     ethr =  2.31E-06,  avg # of iterations =  9.4

     negative rho (up, down):  1.952E-04 0.000E+00

     total cpu time spent up to now is      775.6 secs

     total energy              =  -12616.37350428 Ry
     estimated scf accuracy    <       0.02635932 Ry

     iteration # 18     ecut=    70.00 Ry     beta= 0.20
     Davidson diagonalization with overlap
     ethr =  2.31E-06,  avg # of iterations =  4.1

     negative rho (up, down):  1.978E-04 0.000E+00

     total cpu time spent up to now is      818.3 secs

     total energy              =  -12616.37356057 Ry
     estimated scf accuracy    <       0.07526897 Ry

     iteration # 19     ecut=    70.00 Ry     beta= 0.20
     Davidson diagonalization with overlap
     ethr =  2.31E-06,  avg # of iterations =  3.0

     negative rho (up, down):  1.993E-04 0.000E+00

     total cpu time spent up to now is      857.0 secs

     total energy              =  -12616.37492750 Ry
     estimated scf accuracy    <       0.00570924 Ry

     iteration # 20     ecut=    70.00 Ry     beta= 0.20
     Davidson diagonalization with overlap
     ethr =  7.14E-07,  avg # of iterations =  3.6

     negative rho (up, down):  2.014E-04 0.000E+00

     total cpu time spent up to now is      899.3 secs

     total energy              =  -12616.37501831 Ry
     estimated scf accuracy    <       0.00559995 Ry

     iteration # 21     ecut=    70.00 Ry     beta= 0.20
     Davidson diagonalization with overlap
     ethr =  7.00E-07,  avg # of iterations =  1.0

     negative rho (up, down):  2.050E-04 0.000E+00

     total cpu time spent up to now is      934.6 secs

     total energy              =  -12616.37516996 Ry
     estimated scf accuracy    <       0.00434112 Ry

     iteration # 22     ecut=    70.00 Ry     beta= 0.20
     Davidson diagonalization with overlap
     ethr =  5.43E-07,  avg # of iterations =  1.1

     negative rho (up, down):  2.083E-04 0.000E+00

     total cpu time spent up to now is      971.1 secs

     total energy              =  -12616.37524551 Ry
     estimated scf accuracy    <       0.00366529 Ry

     iteration # 23     ecut=    70.00 Ry     beta= 0.20
     Davidson diagonalization with overlap
     ethr =  4.58E-07,  avg # of iterations =  1.0

     negative rho (up, down):  2.117E-04 0.000E+00

     total cpu time spent up to now is     1006.3 secs

     total energy              =  -12616.37536302 Ry
     estimated scf accuracy    <       0.00101413 Ry

     iteration # 24     ecut=    70.00 Ry     beta= 0.20
     Davidson diagonalization with overlap
     ethr =  1.27E-07,  avg # of iterations =  2.0

     negative rho (up, down):  2.108E-04 0.000E+00

     total cpu time spent up to now is     1046.3 secs

     total energy              =  -12616.37539203 Ry
     estimated scf accuracy    <       0.00105048 Ry

     iteration # 25     ecut=    70.00 Ry     beta= 0.20
     Davidson diagonalization with overlap
     ethr =  1.27E-07,  avg # of iterations =  1.1

     negative rho (up, down):  2.109E-04 0.000E+00

     total cpu time spent up to now is     1082.8 secs

     total energy              =  -12616.37540515 Ry
     estimated scf accuracy    <       0.00062648 Ry

     iteration # 26     ecut=    70.00 Ry     beta= 0.20
     Davidson diagonalization with overlap
     ethr =  7.83E-08,  avg # of iterations =  1.9

     negative rho (up, down):  2.116E-04 0.000E+00

     total cpu time spent up to now is     1122.9 secs

     total energy              =  -12616.37541359 Ry
     estimated scf accuracy    <       0.00117968 Ry

     iteration # 27     ecut=    70.00 Ry     beta= 0.20
     Davidson diagonalization with overlap
     ethr =  7.83E-08,  avg # of iterations =  1.0

     negative rho (up, down):  2.105E-04 0.000E+00

     total cpu time spent up to now is     1158.1 secs

     total energy              =  -12616.37543299 Ry
     estimated scf accuracy    <       0.00015092 Ry

     iteration # 28     ecut=    70.00 Ry     beta= 0.20
     Davidson diagonalization with overlap
     ethr =  1.89E-08,  avg # of iterations =  5.3

     negative rho (up, down):  2.108E-04 0.000E+00

     total cpu time spent up to now is     1201.3 secs

     total energy              =  -12616.37543229 Ry
     estimated scf accuracy    <       0.00033338 Ry

     iteration # 29     ecut=    70.00 Ry     beta= 0.20
     Davidson diagonalization with overlap
     ethr =  1.89E-08,  avg # of iterations =  1.2

     negative rho (up, down):  2.112E-04 0.000E+00

     total cpu time spent up to now is     1239.0 secs

     total energy              =  -12616.37544160 Ry
     estimated scf accuracy    <       0.00008354 Ry

     iteration # 30     ecut=    70.00 Ry     beta= 0.20
     Davidson diagonalization with overlap
     ethr =  1.04E-08,  avg # of iterations =  2.0

     negative rho (up, down):  2.110E-04 0.000E+00

     total cpu time spent up to now is     1279.3 secs

     total energy              =  -12616.37544362 Ry
     estimated scf accuracy    <       0.00009230 Ry

     iteration # 31     ecut=    70.00 Ry     beta= 0.20
     Davidson diagonalization with overlap
     ethr =  1.04E-08,  avg # of iterations =  1.0

     negative rho (up, down):  2.106E-04 0.000E+00

     total cpu time spent up to now is     1314.5 secs

     total energy              =  -12616.37544415 Ry
     estimated scf accuracy    <       0.00005193 Ry

     iteration # 32     ecut=    70.00 Ry     beta= 0.20
     Davidson diagonalization with overlap
     ethr =  6.49E-09,  avg # of iterations =  2.0

     negative rho (up, down):  2.105E-04 0.000E+00

     total cpu time spent up to now is     1354.5 secs

     total energy              =  -12616.37544458 Ry
     estimated scf accuracy    <       0.00002154 Ry

     iteration # 33     ecut=    70.00 Ry     beta= 0.20
     Davidson diagonalization with overlap
     ethr =  2.69E-09,  avg # of iterations =  2.0

     negative rho (up, down):  2.101E-04 0.000E+00

     total cpu time spent up to now is     1394.8 secs

     total energy              =  -12616.37544426 Ry
     estimated scf accuracy    <       0.00001300 Ry

     iteration # 34     ecut=    70.00 Ry     beta= 0.20
     Davidson diagonalization with overlap
     ethr =  1.62E-09,  avg # of iterations =  3.8

     negative rho (up, down):  2.098E-04 0.000E+00

     total cpu time spent up to now is     1436.8 secs

     total energy              =  -12616.37544347 Ry
     estimated scf accuracy    <       0.00002760 Ry

     iteration # 35     ecut=    70.00 Ry     beta= 0.20
     Davidson diagonalization with overlap
     ethr =  1.62E-09,  avg # of iterations =  1.3

     negative rho (up, down):  2.096E-04 0.000E+00

     total cpu time spent up to now is     1474.4 secs

     total energy              =  -12616.37544392 Ry
     estimated scf accuracy    <       0.00001507 Ry

     iteration # 36     ecut=    70.00 Ry     beta= 0.20
     Davidson diagonalization with overlap
     ethr =  1.62E-09,  avg # of iterations =  1.4

     negative rho (up, down):  2.096E-04 0.000E+00

     total cpu time spent up to now is     1512.4 secs

     total energy              =  -12616.37544424 Ry
     estimated scf accuracy    <       0.00000107 Ry

     iteration # 37     ecut=    70.00 Ry     beta= 0.20
     Davidson diagonalization with overlap
     ethr =  1.33E-10,  avg # of iterations =  6.4

     negative rho (up, down):  2.096E-04 0.000E+00

     total cpu time spent up to now is     1558.9 secs

     total energy              =  -12616.37544419 Ry
     estimated scf accuracy    <       0.00000616 Ry

     iteration # 38     ecut=    70.00 Ry     beta= 0.20
     Davidson diagonalization with overlap
     ethr =  1.33E-10,  avg # of iterations =  1.5

     negative rho (up, down):  2.095E-04 0.000E+00

     total cpu time spent up to now is     1597.8 secs

     total energy              =  -12616.37544416 Ry
     estimated scf accuracy    <       0.00000430 Ry

     iteration # 39     ecut=    70.00 Ry     beta= 0.20
     Davidson diagonalization with overlap
     ethr =  1.33E-10,  avg # of iterations =  1.0

     negative rho (up, down):  2.094E-04 0.000E+00

     total cpu time spent up to now is     1633.0 secs

     total energy              =  -12616.37544416 Ry
     estimated scf accuracy    <       0.00000059 Ry

     iteration # 40     ecut=    70.00 Ry     beta= 0.20
     Davidson diagonalization with overlap
     ethr =  7.37E-11,  avg # of iterations =  2.0

     negative rho (up, down):  2.093E-04 0.000E+00

     total cpu time spent up to now is     1673.4 secs

     total energy              =  -12616.37544408 Ry
     estimated scf accuracy    <       0.00000262 Ry

     iteration # 41     ecut=    70.00 Ry     beta= 0.20
     Davidson diagonalization with overlap
     ethr =  7.37E-11,  avg # of iterations =  1.3

     negative rho (up, down):  2.093E-04 0.000E+00

     total cpu time spent up to now is     1711.4 secs

     total energy              =  -12616.37544412 Ry
     estimated scf accuracy    <       0.00000173 Ry

     iteration # 42     ecut=    70.00 Ry     beta= 0.20
     Davidson diagonalization with overlap
     ethr =  7.37E-11,  avg # of iterations =  1.0

     negative rho (up, down):  2.093E-04 0.000E+00

     total cpu time spent up to now is     1746.7 secs

     total energy              =  -12616.37544415 Ry
     estimated scf accuracy    <       0.00000111 Ry

     iteration # 43     ecut=    70.00 Ry     beta= 0.20
     Davidson diagonalization with overlap
     ethr =  7.37E-11,  avg # of iterations =  1.0

     negative rho (up, down):  2.093E-04 0.000E+00

     total cpu time spent up to now is     1782.1 secs

     total energy              =  -12616.37544415 Ry
     estimated scf accuracy    <       0.00000018 Ry

     iteration # 44     ecut=    70.00 Ry     beta= 0.20
     Davidson diagonalization with overlap
     ethr =  2.25E-11,  avg # of iterations =  1.0

     negative rho (up, down):  2.093E-04 0.000E+00

     total cpu time spent up to now is     1817.4 secs

     total energy              =  -12616.37544414 Ry
     estimated scf accuracy    <       0.00000009 Ry

     iteration # 45     ecut=    70.00 Ry     beta= 0.20
     Davidson diagonalization with overlap
     ethr =  1.10E-11,  avg # of iterations =  4.9

     negative rho (up, down):  2.092E-04 0.000E+00

     total cpu time spent up to now is     1863.9 secs

     total energy              =  -12616.37544412 Ry
     estimated scf accuracy    <       0.00000082 Ry

     iteration # 46     ecut=    70.00 Ry     beta= 0.20
     Davidson diagonalization with overlap
     ethr =  1.10E-11,  avg # of iterations =  2.5

     negative rho (up, down):  2.092E-04 0.000E+00

     total cpu time spent up to now is     1904.7 secs

     total energy              =  -12616.37544413 Ry
     estimated scf accuracy    <       0.00000003 Ry

     iteration # 47     ecut=    70.00 Ry     beta= 0.20
     Davidson diagonalization with overlap
     ethr =  4.32E-12,  avg # of iterations =  4.9

     negative rho (up, down):  2.092E-04 0.000E+00

     total cpu time spent up to now is     1948.5 secs

     total energy              =  -12616.37544412 Ry
     estimated scf accuracy    <       0.00000025 Ry

     iteration # 48     ecut=    70.00 Ry     beta= 0.20
     Davidson diagonalization with overlap
     ethr =  4.32E-12,  avg # of iterations =  2.3

     negative rho (up, down):  2.092E-04 0.000E+00

     total cpu time spent up to now is     1989.0 secs

     total energy              =  -12616.37544413 Ry
     estimated scf accuracy    <       0.00000012 Ry

     iteration # 49     ecut=    70.00 Ry     beta= 0.20
     Davidson diagonalization with overlap
     ethr =  4.32E-12,  avg # of iterations =  1.1

     negative rho (up, down):  2.092E-04 0.000E+00

     total cpu time spent up to now is     2025.2 secs

     total energy              =  -12616.37544413 Ry
     estimated scf accuracy    <       0.00000011 Ry

     iteration # 50     ecut=    70.00 Ry     beta= 0.20
     Davidson diagonalization with overlap
     ethr =  4.32E-12,  avg # of iterations =  1.0

     negative rho (up, down):  2.092E-04 0.000E+00

     total cpu time spent up to now is     2060.5 secs

     total energy              =  -12616.37544413 Ry
     estimated scf accuracy    <       0.00000001 Ry

     iteration # 51     ecut=    70.00 Ry     beta= 0.20
     Davidson diagonalization with overlap
     ethr =  1.40E-12,  avg # of iterations =  2.7

     negative rho (up, down):  2.091E-04 0.000E+00

     total cpu time spent up to now is     2101.3 secs

     total energy              =  -12616.37544413 Ry
     estimated scf accuracy    <       0.00000004 Ry

     iteration # 52     ecut=    70.00 Ry     beta= 0.20
     Davidson diagonalization with overlap
     ethr =  1.40E-12,  avg # of iterations =  1.0

     negative rho (up, down):  2.091E-04 0.000E+00

     total cpu time spent up to now is     2136.5 secs

     End of self-consistent calculation

          k = 0.0000 0.0000 0.0000 (108303 PWs)   bands (ev):

   -67.0001 -66.9598 -66.9592 -66.9590 -66.9516 -66.9513 -66.9496 -66.9494
   -66.9254 -66.9246 -66.9246 -66.9222 -66.9221 -66.9216 -66.9182 -66.9175
   -66.9156 -66.9136 -66.9135 -66.9055 -66.9038 -66.9032 -66.9006 -66.8997
   -66.7457 -66.7164 -66.7163 -66.7162 -66.7099 -66.7090 -66.7089 -66.6929
   -66.6928 -66.6919 -66.6861 -66.6861 -66.6677 -66.6317 -66.6245 -66.6193
   -66.6185 -66.6111 -66.5824 -66.5812 -66.5811 -66.5780 -66.5694 -66.5683
   -38.8042 -38.7776 -38.7773 -38.7736 -38.6751 -38.6746 -38.6743 -38.6356
   -38.6353 -38.6195 -38.6192 -38.6171 -38.5957 -38.5654 -38.5653 -38.5596
   -38.5410 -38.5409 -38.5393 -38.5171 -38.5096 -38.5091 -38.4770 -38.4766
   -38.4728 -38.4726 -38.4714 -38.4646 -38.3899 -38.3780 -38.3741 -38.3736
   -38.3707 -38.3677 -38.3675 -38.3671 -38.3631 -38.3630 -38.3275 -38.3273
   -38.3269 -38.3109 -38.3105 -38.3100 -38.3003 -38.2683 -38.2670 -38.2653
   -38.2650 -38.2628 -38.2625 -38.2604 -38.2603 -38.2564 -38.2419 -38.2419
   -38.2374 -38.2370 -38.2328 -38.2315 -38.2294 -38.2285 -38.2283 -38.2278
   -38.2187 -38.2148 -38.2147 -38.2102 -38.2018 -38.2009 -38.1982 -38.1665
   -38.1616 -38.1576 -38.1488 -38.1467 -38.1444 -38.1407 -38.1405 -38.1353
   -38.1280 -38.1188 -38.1181 -38.1124 -38.0987 -38.0960 -38.0928 -38.0912
   -38.0909 -38.0770 -38.0769 -38.0543 -38.0532 -38.0497 -38.0482 -38.0442
   -38.0392 -38.0383 -38.0309 -38.0307 -38.0272 -38.0026 -38.0018 -38.0018
   -37.9695 -37.9690 -37.9615 -37.9612 -37.9594 -37.9536 -37.9530 -37.9465
   -37.9434 -37.9432 -37.9406 -37.9270 -37.9255 -37.9164 -37.9163 -37.9101
   -37.9093 -37.8982 -37.8981 -37.8979 -37.8644 -37.8637 -37.8636 -37.8628
   -37.8627 -37.8623 -37.8340 -37.8339 -37.8310 -37.8137 -37.8051 -37.8040
   -37.7034 -37.6987 -37.6900 -37.6741 -37.6723 -37.6711 -37.6515 -37.6511
   -12.5008 -12.0311 -11.7984 -11.7980 -11.7969 -11.6519 -11.6514 -11.6449
   -11.6259 -11.6257 -11.6215 -11.3438 -11.3432 -11.3385 -11.2661 -11.2339
   -11.2334 -11.2296 -11.0027 -10.9797  -8.8249  -8.7093  -8.7091  -8.7089
    -8.6515  -3.0043  -3.0023  -3.0010  -2.7893  -2.7604  -2.7593  -2.5649
    -2.5647  -2.5645  -2.5595  -2.5401  -2.5370  -2.4729  -2.4199  -2.4041
    -2.4039  -2.3243  -2.3168  -2.3168  -2.2406  -2.2369  -1.7902  -1.7579
    -1.7578  -1.6155  -1.5812  -1.5785  -1.5457  -1.5217  -1.4960  -1.4833
    -1.4421  -1.4254  -1.4121  -1.4045  -1.3383  -1.3382  -1.3359  -1.2868
    -1.2835  -1.2794  -1.2271  -1.2264  -1.2062  -1.0878  -1.0869  -0.9832
    -0.9519  -0.9180  -0.9068  -0.9021  -0.8932  -0.8728  -0.8529  -0.8247
    -0.8246  -0.8210  -0.6852  -0.6797  -0.6753  -0.4363  -0.4328  -0.4327
     0.6566   1.2266   1.2270   1.2271   1.4695   1.4698   1.4698   1.5441
     1.5634   1.5635   1.5837   1.5848   1.5851   1.6060   1.6061   1.6062
     1.7742   1.7809   1.7816   2.0667   2.0672   2.0677   2.1921   2.1926
     2.1967   2.2245   2.3394   2.3519   2.3526   2.4384   2.4387   2.4462
     2.4537   2.4540   2.4542   2.5160   2.5185   2.5185   2.5347   2.6962
     2.6964   2.7970   2.8021   2.8034   3.1561   3.1576   3.1980   3.2886
     3.2888   3.3494   3.3521   3.3532   3.3656   3.3662   3.3699   3.4839
     3.4855   3.4994   3.5251   3.5534   3.5545   3.6476   3.6696   3.6706
     3.6864   3.6945   3.6955   3.7277   3.7283   3.7330   3.7428   3.8209
     3.8267   3.8325   3.9821   3.9846   4.0363   4.1344   4.1391   4.1478
     4.1602   4.1607   4.2877   4.2940   4.3035   4.3133   4.3499   4.3600
     4.3617   4.4219   4.4225   4.4227   4.4362   4.4948   4.4995   4.5000
     4.5529   4.5532   4.6362   4.7076   4.7090   4.7416   4.7471   4.7914
     4.7915   4.8405   4.8409   4.8686   4.8807   4.8909   4.8986   4.9568
     4.9592   4.9757   5.0206   5.0207   5.1051   5.1245   5.1375   5.1398
     5.2172   5.2260   5.3362   5.3952   5.3955   5.3973   5.5046   5.5058
     5.5402   5.5533   5.5568   5.5701   5.5711   5.5733   5.6892   5.6981
     5.7025   5.7090   5.7132   5.7178   5.7308   5.7314   5.7584   5.7611
     5.8076   5.8461   5.8582   5.8644   5.8701   5.8738   5.8739   5.9052
     5.9084   5.9109   5.9856   5.9909   5.9990   6.0123   6.0132   6.0148
     6.0154   6.0304   6.0724   6.0731   6.0741   6.1054   6.1107   6.1328
     6.2066   6.2072   6.2185   6.2193   6.2195   6.2650   6.2654   6.2715
     6.2765   6.2778   6.3205   6.3215   6.3235   6.3672   6.3692   6.4020
     6.5353   6.5756   6.5764   6.5777   6.6317   6.6325   6.6536   6.6666
     6.6685   6.7209   6.7239   6.7245   6.7301   6.7304   6.7733   6.8370

          k = 0.0000 0.2887 0.0000 (108355 PWs)   bands (ev):

   -66.9966 -66.9724 -66.9631 -66.9627 -66.9469 -66.9452 -66.9443 -66.9383
   -66.9305 -66.9278 -66.9274 -66.9248 -66.9239 -66.9232 -66.9166 -66.9157
   -66.9144 -66.9130 -66.9100 -66.9062 -66.9046 -66.9033 -66.9011 -66.9003
   -66.7431 -66.7253 -66.7188 -66.7183 -66.7057 -66.7050 -66.7011 -66.6945
   -66.6940 -66.6916 -66.6877 -66.6872 -66.6672 -66.6322 -66.6252 -66.6216
   -66.6175 -66.6095 -66.5818 -66.5809 -66.5793 -66.5785 -66.5705 -66.5690
   -38.8009 -38.7812 -38.7733 -38.7706 -38.6704 -38.6699 -38.6686 -38.6433
   -38.6345 -38.6259 -38.6255 -38.6223 -38.5972 -38.5817 -38.5685 -38.5638
   -38.5377 -38.5343 -38.5254 -38.5188 -38.5114 -38.5100 -38.5049 -38.4824
   -38.4670 -38.4657 -38.4645 -38.4428 -38.3842 -38.3823 -38.3775 -38.3721
   -38.3696 -38.3634 -38.3616 -38.3611 -38.3564 -38.3489 -38.3323 -38.3296
   -38.3276 -38.3200 -38.3141 -38.3125 -38.2965 -38.2829 -38.2791 -38.2681
   -38.2661 -38.2645 -38.2641 -38.2640 -38.2603 -38.2584 -38.2512 -38.2473
   -38.2449 -38.2437 -38.2387 -38.2325 -38.2318 -38.2274 -38.2193 -38.2154
   -38.2134 -38.2104 -38.2095 -38.1981 -38.1933 -38.1917 -38.1897 -38.1690
   -38.1660 -38.1578 -38.1552 -38.1527 -38.1501 -38.1403 -38.1398 -38.1306
   -38.1269 -38.1224 -38.1216 -38.1078 -38.1055 -38.0997 -38.0961 -38.0904
   -38.0833 -38.0812 -38.0700 -38.0581 -38.0532 -38.0499 -38.0478 -38.0404
   -38.0379 -38.0308 -38.0277 -38.0237 -38.0228 -38.0089 -38.0070 -38.0042
   -37.9735 -37.9696 -37.9666 -37.9594 -37.9584 -37.9570 -37.9484 -37.9469
   -37.9426 -37.9402 -37.9383 -37.9243 -37.9233 -37.9172 -37.9149 -37.9115
   -37.9100 -37.9006 -37.9004 -37.8966 -37.8702 -37.8664 -37.8660 -37.8576
   -37.8570 -37.8543 -37.8440 -37.8365 -37.8291 -37.8130 -37.8060 -37.8049
   -37.7013 -37.6961 -37.6875 -37.6746 -37.6721 -37.6690 -37.6589 -37.6529
   -12.4372 -12.0100 -11.9887 -11.8540 -11.8524 -11.7218 -11.6360 -11.6322
   -11.5605 -11.5579 -11.4797 -11.3351 -11.3314 -11.2851 -11.2662 -11.2638
   -11.2539 -11.2003 -11.0358 -11.0145  -8.8249  -8.7108  -8.7106  -8.6993
    -8.6586  -2.9732  -2.9696  -2.9296  -2.8171  -2.7462  -2.7341  -2.7135
    -2.7052  -2.7034  -2.5916  -2.5866  -2.4429  -2.3991  -2.3581  -2.3466
    -2.3465  -2.2900  -2.2379  -2.2124  -2.2033  -2.1582  -1.9628  -1.7829
    -1.7664  -1.7403  -1.6562  -1.6416  -1.5905  -1.5196  -1.5105  -1.4750
    -1.4662  -1.4203  -1.4019  -1.3861  -1.3699  -1.3405  -1.3204  -1.3086
    -1.2897  -1.2535  -1.2466  -1.2316  -1.1212  -1.0794  -1.0617  -1.0146
    -0.9641  -0.9228  -0.9042  -0.8879  -0.8747  -0.8337  -0.8323  -0.8259
    -0.8034  -0.7750  -0.7202  -0.6522  -0.6494  -0.5052  -0.4611  -0.4591
     0.7781   1.1883   1.2199   1.2202   1.4592   1.4594   1.4686   1.4716
     1.5357   1.5543   1.5552   1.5742   1.6350   1.6737   1.6762   1.6882
     1.7891   1.7929   1.8354   2.0751   2.0758   2.1189   2.1681   2.1715
     2.2242   2.2761   2.3089   2.3133   2.3365   2.4344   2.4374   2.4527
     2.4629   2.4651   2.5283   2.5577   2.5601   2.5772   2.5993   2.6283
     2.7316   2.8106   2.8118   2.8745   3.0305   3.0781   3.1416   3.2102
     3.2118   3.2437   3.2493   3.2771   3.3734   3.3767   3.3993   3.4082
     3.4092   3.4485   3.5267   3.5926   3.6087   3.6215   3.6501   3.6927
     3.7114   3.7189   3.7326   3.7422   3.7856   3.7915   3.7956   3.8753
     3.9856   4.0060   4.0222   4.0372   4.0459   4.0555   4.0698   4.1565
     4.1811   4.1948   4.2517   4.2595   4.2858   4.3045   4.3150   4.3178
     4.3386   4.3687   4.3867   4.3901   4.4153   4.4846   4.4959   4.5045
     4.5091   4.5758   4.5856   4.6659   4.6987   4.7382   4.7569   4.7744
     4.7952   4.8048   4.8488   4.8607   4.9077   4.9371   4.9512   4.9553
     4.9868   5.0016   5.0146   5.0738   5.0947   5.1456   5.1535   5.1939
     5.2063   5.2401   5.3049   5.3216   5.3403   5.3672   5.4037   5.4595
     5.4764   5.4811   5.4824   5.5342   5.5531   5.5664   5.5727   5.5852
     5.5874   5.6842   5.7055   5.7344   5.7502   5.7623   5.7668   5.7732
     5.7940   5.8190   5.8240   5.8416   5.8506   5.8864   5.8992   5.9036
     5.9071   5.9385   5.9534   5.9777   5.9817   5.9902   6.0217   6.0290
     6.0380   6.0460   6.0525   6.0590   6.0725   6.0751   6.1041   6.1891
     6.2112   6.2178   6.2377   6.2577   6.2616   6.2661   6.2673   6.3177
     6.3257   6.3263   6.3293   6.3777   6.4075   6.4162   6.4223   6.4669
     6.4764   6.4854   6.5470   6.5524   6.5636   6.5704   6.6599   6.6682
     6.6803   6.7041   6.7069   6.7287   6.7490   6.7667   6.8081   6.8121

          k = 0.0000-0.5774 0.0000 (108310 PWs)   bands (ev):

   -66.9872 -66.9863 -66.9653 -66.9648 -66.9407 -66.9397 -66.9375 -66.9363
   -66.9335 -66.9331 -66.9267 -66.9252 -66.9249 -66.9246 -66.9203 -66.9193
   -66.9106 -66.9087 -66.9083 -66.9074 -66.9047 -66.9034 -66.9023 -66.9012
   -66.7359 -66.7356 -66.7203 -66.7198 -66.7009 -66.6999 -66.6979 -66.6976
   -66.6930 -66.6924 -66.6897 -66.6893 -66.6667 -66.6328 -66.6256 -66.6237
   -66.6165 -66.6083 -66.5818 -66.5799 -66.5795 -66.5756 -66.5734 -66.5695
   -38.7922 -38.7910 -38.7690 -38.7664 -38.6650 -38.6612 -38.6596 -38.6568
   -38.6363 -38.6321 -38.6292 -38.6279 -38.5963 -38.5947 -38.5707 -38.5657
   -38.5350 -38.5297 -38.5243 -38.5223 -38.5189 -38.5144 -38.4980 -38.4946
   -38.4600 -38.4581 -38.4474 -38.4460 -38.3936 -38.3914 -38.3689 -38.3674
   -38.3618 -38.3608 -38.3534 -38.3530 -38.3426 -38.3408 -38.3311 -38.3297
   -38.3254 -38.3247 -38.3196 -38.3148 -38.3041 -38.3026 -38.2884 -38.2694
   -38.2682 -38.2677 -38.2650 -38.2645 -38.2638 -38.2599 -38.2583 -38.2502
   -38.2469 -38.2457 -38.2449 -38.2369 -38.2343 -38.2332 -38.2140 -38.2109
   -38.2061 -38.1964 -38.1947 -38.1904 -38.1843 -38.1819 -38.1817 -38.1782
   -38.1739 -38.1665 -38.1636 -38.1627 -38.1397 -38.1368 -38.1337 -38.1303
   -38.1276 -38.1274 -38.1177 -38.1147 -38.1115 -38.1089 -38.0983 -38.0904
   -38.0797 -38.0782 -38.0619 -38.0569 -38.0547 -38.0500 -38.0456 -38.0444
   -38.0367 -38.0355 -38.0241 -38.0189 -38.0182 -38.0129 -37.9946 -37.9928
   -37.9833 -37.9789 -37.9705 -37.9671 -37.9573 -37.9558 -37.9491 -37.9428
   -37.9401 -37.9374 -37.9337 -37.9300 -37.9196 -37.9164 -37.9126 -37.9112
   -37.9035 -37.9031 -37.9027 -37.9020 -37.8679 -37.8674 -37.8638 -37.8633
   -37.8536 -37.8529 -37.8442 -37.8437 -37.8273 -37.8106 -37.8085 -37.8060
   -37.6988 -37.6885 -37.6858 -37.6782 -37.6720 -37.6686 -37.6654 -37.6550
   -12.2608 -12.2595 -11.8886 -11.8870 -11.8747 -11.8723 -11.6437 -11.6401
   -11.4726 -11.4705 -11.3467 -11.3465 -11.3359 -11.3306 -11.3093 -11.3084
   -11.1280 -11.1257 -11.1073 -11.1071  -8.8250  -8.7124  -8.7122  -8.6777
    -8.6776  -2.9413  -2.9328  -2.8429  -2.8402  -2.7777  -2.7759  -2.7726
    -2.7695  -2.6488  -2.6475  -2.5319  -2.5297  -2.3753  -2.3651  -2.3075
    -2.3017  -2.2527  -2.2436  -2.1305  -2.1186  -2.0422  -2.0359  -1.8456
    -1.8443  -1.7435  -1.7027  -1.6742  -1.6680  -1.6021  -1.5672  -1.5154
    -1.4658  -1.4438  -1.4390  -1.4172  -1.3687  -1.3053  -1.2925  -1.2630
    -1.2609  -1.2485  -1.2441  -1.1306  -1.1271  -1.0502  -1.0495  -1.0335
    -1.0241  -0.9238  -0.9012  -0.8949  -0.8548  -0.8490  -0.8356  -0.8195
    -0.7318  -0.7308  -0.6699  -0.6668  -0.6224  -0.6195  -0.4849  -0.4827
     1.0214   1.0229   1.2078   1.2081   1.4373   1.4388   1.4593   1.4598
     1.5352   1.5354   1.5515   1.5517   1.6920   1.6936   1.7021   1.7079
     1.9280   1.9327   1.9356   1.9373   2.1098   2.1107   2.1450   2.1495
     2.2380   2.2408   2.3707   2.3731   2.3950   2.3957   2.4256   2.4272
     2.4644   2.4675   2.4761   2.4805   2.5850   2.5902   2.7580   2.7620
     2.8103   2.8147   2.8315   2.8370   3.0277   3.0321   3.0495   3.0501
     3.1201   3.1208   3.2136   3.2222   3.3380   3.3385   3.3989   3.4022
     3.4307   3.4369   3.5314   3.5318   3.6189   3.6378   3.6784   3.6815
     3.7401   3.7488   3.8215   3.8291   3.8807   3.8873   3.9117   3.9228
     3.9478   3.9530   3.9797   4.0015   4.0064   4.0194   4.1370   4.1484
     4.1630   4.1753   4.2567   4.2854   4.2996   4.3109   4.3344   4.3572
     4.3671   4.3715   4.3761   4.3929   4.4512   4.4689   4.4829   4.4882
     4.4908   4.4984   4.6115   4.6207   4.6224   4.6447   4.6900   4.6923
     4.7101   4.7119   4.8209   4.8349   4.9946   5.0008   5.0052   5.0079
     5.0098   5.0419   5.0741   5.1127   5.1269   5.1314   5.1465   5.1543
     5.1931   5.1984   5.2747   5.3254   5.3544   5.3565   5.3671   5.3703
     5.4477   5.4486   5.4775   5.5189   5.5295   5.5361   5.5734   5.5908
     5.5947   5.6040   5.6114   5.6753   5.7129   5.7188   5.7531   5.7541
     5.7698   5.7750   5.7845   5.8073   5.8389   5.8620   5.8823   5.8866
     5.8896   5.9108   5.9222   5.9276   5.9674   5.9942   6.0143   6.0180
     6.0470   6.0691   6.0851   6.1301   6.1577   6.1738   6.1765   6.1855
     6.1888   6.1985   6.1991   6.2116   6.2201   6.2254   6.3492   6.3542
     6.3589   6.3646   6.3973   6.4031   6.4375   6.4403   6.4552   6.4602
     6.4741   6.4834   6.5068   6.5104   6.6208   6.6222   6.6350   6.6356
     6.6644   6.6723   6.7243   6.7313   6.8579   6.8658   6.8672   6.8779

          k = 0.2500 0.4330 0.0000 (108308 PWs)   bands (ev):

   -66.9899 -66.9783 -66.9773 -66.9540 -66.9457 -66.9424 -66.9363 -66.9348
   -66.9335 -66.9311 -66.9305 -66.9251 -66.9245 -66.9213 -66.9197 -66.9186
   -66.9142 -66.9096 -66.9074 -66.9060 -66.9046 -66.9033 -66.9024 -66.9013
   -66.7381 -66.7293 -66.7291 -66.7125 -66.7060 -66.6997 -66.6965 -66.6963
   -66.6928 -66.6921 -66.6903 -66.6895 -66.6667 -66.6312 -66.6293 -66.6194
   -66.6188 -66.6082 -66.5812 -66.5808 -66.5791 -66.5762 -66.5721 -66.5701
   -38.7942 -38.7831 -38.7813 -38.7598 -38.6649 -38.6641 -38.6584 -38.6538
   -38.6389 -38.6332 -38.6281 -38.6264 -38.5967 -38.5873 -38.5869 -38.5477
   -38.5414 -38.5302 -38.5290 -38.5238 -38.5223 -38.5062 -38.5023 -38.4901
   -38.4557 -38.4547 -38.4536 -38.4423 -38.4191 -38.3717 -38.3709 -38.3700
   -38.3609 -38.3587 -38.3498 -38.3465 -38.3452 -38.3403 -38.3395 -38.3313
   -38.3256 -38.3199 -38.3180 -38.3159 -38.3004 -38.2946 -38.2926 -38.2877
   -38.2696 -38.2687 -38.2655 -38.2612 -38.2581 -38.2555 -38.2512 -38.2507
   -38.2492 -38.2479 -38.2418 -38.2373 -38.2340 -38.2336 -38.2319 -38.2040
   -38.2001 -38.1991 -38.1935 -38.1882 -38.1862 -38.1830 -38.1792 -38.1748
   -38.1739 -38.1681 -38.1672 -38.1629 -38.1417 -38.1337 -38.1328 -38.1290
   -38.1241 -38.1234 -38.1213 -38.1181 -38.1119 -38.1104 -38.1057 -38.0837
   -38.0799 -38.0787 -38.0604 -38.0601 -38.0569 -38.0513 -38.0494 -38.0447
   -38.0366 -38.0263 -38.0250 -38.0195 -38.0154 -38.0041 -38.0024 -37.9976
   -37.9835 -37.9726 -37.9720 -37.9660 -37.9585 -37.9527 -37.9485 -37.9459
   -37.9445 -37.9361 -37.9358 -37.9297 -37.9196 -37.9147 -37.9130 -37.9097
   -37.9077 -37.9059 -37.8980 -37.8976 -37.8724 -37.8717 -37.8605 -37.8595
   -37.8579 -37.8486 -37.8483 -37.8407 -37.8275 -37.8109 -37.8075 -37.8065
   -37.6980 -37.6912 -37.6827 -37.6807 -37.6725 -37.6670 -37.6652 -37.6551
   -12.3169 -12.1041 -12.1029 -11.9100 -11.7762 -11.7739 -11.7261 -11.5589
   -11.5327 -11.4228 -11.4040 -11.4025 -11.3873 -11.3226 -11.2119 -11.2092
   -11.1878 -11.1869 -11.0992 -11.0794  -8.8250  -8.7210  -8.6935  -8.6935
    -8.6719  -2.9884  -2.8889  -2.8851  -2.8700  -2.7590  -2.7557  -2.7171
    -2.6798  -2.6281  -2.6160  -2.5948  -2.5904  -2.5484  -2.3591  -2.2314
    -2.2184  -2.2078  -2.1897  -2.1377  -2.1277  -2.0865  -2.0834  -1.9662
    -1.8131  -1.7755  -1.6970  -1.6831  -1.5998  -1.5521  -1.5284  -1.5031
    -1.4606  -1.4472  -1.4225  -1.3974  -1.3726  -1.3669  -1.3356  -1.3146
    -1.2926  -1.1874  -1.1827  -1.1428  -1.1400  -1.1153  -1.0736  -0.9643
    -0.9426  -0.9288  -0.9130  -0.8792  -0.8676  -0.8491  -0.8300  -0.8044
    -0.8030  -0.7533  -0.7466  -0.6609  -0.5636  -0.5525  -0.5492  -0.4554
     0.9556   1.1393   1.1402   1.2405   1.4246   1.4408   1.4419   1.4438
     1.4873   1.5685   1.5689   1.5961   1.6612   1.6797   1.6816   1.7391
     1.8568   1.9755   1.9766   2.0638   2.0652   2.1281   2.1301   2.1868
     2.1939   2.2550   2.2559   2.2885   2.3628   2.3686   2.4033   2.4036
     2.4532   2.5042   2.5712   2.5978   2.5987   2.6800   2.6825   2.7959
     2.7996   2.8034   2.8376   2.8400   2.9394   2.9427   2.9434   3.0092
     3.1914   3.2543   3.2993   3.3018   3.3450   3.3460   3.3525   3.4399
     3.4428   3.4443   3.4612   3.5701   3.5883   3.5904   3.6545   3.7155
     3.7224   3.7603   3.7660   3.7937   3.7987   3.8570   3.8797   3.8961
     4.0213   4.0359   4.0606   4.0700   4.0759   4.0848   4.0891   4.1311
     4.1475   4.1751   4.2095   4.2467   4.2490   4.3061   4.3211   4.3321
     4.3573   4.3718   4.4006   4.4104   4.4399   4.4425   4.4708   4.4759
     4.5699   4.5726   4.5963   4.6075   4.6094   4.6138   4.6512   4.6856
     4.7407   4.8696   4.8717   4.8936   4.8952   4.9053   4.9141   4.9179
     4.9654   4.9987   5.0487   5.0783   5.1320   5.1656   5.1715   5.1785
     5.2070   5.2864   5.2987   5.3241   5.3332   5.3558   5.4018   5.4332
     5.4460   5.4477   5.4650   5.4933   5.5196   5.5274   5.5653   5.5904
     5.6076   5.6381   5.6685   5.7178   5.7277   5.7364   5.7463   5.7544
     5.7781   5.7850   5.7881   5.7914   5.8075   5.8584   5.8745   5.8868
     5.8886   5.8990   5.9191   5.9320   5.9409   5.9794   5.9864   6.0379
     6.0435   6.0533   6.0743   6.0861   6.1043   6.1197   6.1232   6.1819
     6.1863   6.1927   6.2221   6.2299   6.2489   6.2796   6.2999   6.3155
     6.3480   6.3599   6.3810   6.3885   6.4425   6.4680   6.4787   6.5091
     6.5141   6.5160   6.5764   6.5782   6.6080   6.6279   6.6593   6.6811
     6.6856   6.6911   6.7233   6.7371   6.7478   6.8063   6.8608   6.8670

          k =-0.2500 0.1443 0.0000 (108355 PWs)   bands (ev):

   -66.9966 -66.9724 -66.9632 -66.9626 -66.9469 -66.9453 -66.9442 -66.9382
   -66.9305 -66.9278 -66.9273 -66.9249 -66.9237 -66.9232 -66.9166 -66.9157
   -66.9145 -66.9129 -66.9099 -66.9062 -66.9044 -66.9035 -66.9010 -66.9003
   -66.7431 -66.7253 -66.7188 -66.7183 -66.7057 -66.7050 -66.7011 -66.6945
   -66.6940 -66.6916 -66.6877 -66.6871 -66.6672 -66.6329 -66.6244 -66.6207
   -66.6186 -66.6096 -66.5816 -66.5808 -66.5795 -66.5785 -66.5708 -66.5687
   -38.8009 -38.7812 -38.7733 -38.7706 -38.6705 -38.6699 -38.6684 -38.6434
   -38.6344 -38.6259 -38.6256 -38.6222 -38.5971 -38.5816 -38.5687 -38.5639
   -38.5377 -38.5342 -38.5255 -38.5188 -38.5112 -38.5101 -38.5050 -38.4822
   -38.4671 -38.4654 -38.4647 -38.4430 -38.3840 -38.3822 -38.3775 -38.3722
   -38.3697 -38.3634 -38.3616 -38.3611 -38.3563 -38.3490 -38.3323 -38.3294
   -38.3276 -38.3201 -38.3137 -38.3126 -38.2967 -38.2827 -38.2794 -38.2682
   -38.2661 -38.2645 -38.2642 -38.2641 -38.2600 -38.2588 -38.2511 -38.2474
   -38.2449 -38.2437 -38.2383 -38.2325 -38.2318 -38.2271 -38.2194 -38.2150
   -38.2136 -38.2108 -38.2097 -38.1979 -38.1928 -38.1920 -38.1899 -38.1696
   -38.1655 -38.1581 -38.1538 -38.1529 -38.1504 -38.1403 -38.1398 -38.1310
   -38.1270 -38.1223 -38.1216 -38.1080 -38.1036 -38.1011 -38.0964 -38.0905
   -38.0834 -38.0808 -38.0699 -38.0582 -38.0533 -38.0502 -38.0473 -38.0405
   -38.0379 -38.0309 -38.0276 -38.0234 -38.0228 -38.0090 -38.0070 -38.0041
   -37.9732 -37.9700 -37.9663 -37.9594 -37.9587 -37.9570 -37.9485 -37.9472
   -37.9428 -37.9402 -37.9381 -37.9240 -37.9229 -37.9168 -37.9152 -37.9112
   -37.9104 -37.9006 -37.9004 -37.8966 -37.8702 -37.8663 -37.8661 -37.8577
   -37.8570 -37.8542 -37.8440 -37.8365 -37.8291 -37.8131 -37.8060 -37.8049
   -37.7003 -37.6968 -37.6875 -37.6759 -37.6716 -37.6685 -37.6591 -37.6526
   -12.4372 -12.0100 -11.9887 -11.8538 -11.8526 -11.7218 -11.6358 -11.6325
   -11.5603 -11.5581 -11.4796 -11.3348 -11.3317 -11.2851 -11.2660 -11.2641
   -11.2539 -11.2003 -11.0358 -11.0145  -8.8249  -8.7107  -8.7107  -8.6993
    -8.6586  -2.9733  -2.9698  -2.9295  -2.8168  -2.7462  -2.7342  -2.7134
    -2.7059  -2.7032  -2.5910  -2.5864  -2.4443  -2.3991  -2.3571  -2.3465
    -2.3464  -2.2895  -2.2386  -2.2108  -2.2029  -2.1589  -1.9633  -1.7843
    -1.7662  -1.7359  -1.6689  -1.6412  -1.5885  -1.5267  -1.4966  -1.4742
    -1.4708  -1.4217  -1.4021  -1.3823  -1.3608  -1.3492  -1.3206  -1.3081
    -1.2898  -1.2534  -1.2415  -1.2341  -1.1225  -1.0796  -1.0611  -1.0146
    -0.9700  -0.9180  -0.9038  -0.8857  -0.8768  -0.8334  -0.8323  -0.8262
    -0.8034  -0.7748  -0.7213  -0.6522  -0.6492  -0.5052  -0.4611  -0.4591
     0.7780   1.1882   1.2198   1.2202   1.4592   1.4594   1.4686   1.4716
     1.5356   1.5543   1.5552   1.5742   1.6350   1.6736   1.6760   1.6882
     1.7884   1.7933   1.8357   2.0750   2.0759   2.1190   2.1675   2.1714
     2.2241   2.2761   2.3092   2.3133   2.3364   2.4344   2.4371   2.4527
     2.4629   2.4652   2.5289   2.5578   2.5599   2.5775   2.5993   2.6284
     2.7316   2.8104   2.8119   2.8748   3.0301   3.0780   3.1420   3.2098
     3.2122   3.2436   3.2496   3.2771   3.3744   3.3757   3.3984   3.4082
     3.4095   3.4491   3.5275   3.5894   3.6091   3.6209   3.6513   3.6959
     3.7113   3.7199   3.7307   3.7418   3.7848   3.7918   3.7960   3.8749
     3.9889   4.0055   4.0213   4.0376   4.0442   4.0549   4.0704   4.1564
     4.1824   4.1947   4.2523   4.2590   4.2823   4.3048   4.3138   4.3183
     4.3380   4.3700   4.3876   4.3923   4.4153   4.4864   4.4961   4.5047
     4.5081   4.5726   4.5853   4.6669   4.6986   4.7377   4.7553   4.7744
     4.7955   4.8044   4.8488   4.8607   4.9079   4.9378   4.9514   4.9544
     4.9869   5.0025   5.0146   5.0727   5.0947   5.1490   5.1534   5.1953
     5.2055   5.2394   5.3041   5.3217   5.3416   5.3673   5.4034   5.4566
     5.4759   5.4810   5.4822   5.5341   5.5526   5.5693   5.5730   5.5851
     5.5869   5.6857   5.7059   5.7380   5.7454   5.7627   5.7667   5.7735
     5.7941   5.8209   5.8233   5.8418   5.8503   5.8844   5.8998   5.9035
     5.9069   5.9393   5.9535   5.9773   5.9822   5.9905   6.0198   6.0290
     6.0382   6.0458   6.0529   6.0590   6.0725   6.0752   6.1033   6.1898
     6.2110   6.2184   6.2382   6.2561   6.2613   6.2663   6.2677   6.3205
     6.3247   6.3261   6.3290   6.3773   6.4064   6.4160   6.4222   6.4668
     6.4762   6.4855   6.5470   6.5522   6.5637   6.5704   6.6606   6.6681
     6.6790   6.7049   6.7071   6.7301   6.7497   6.7668   6.8073   6.8125

          k = 0.2500 0.1443 0.0000 (108355 PWs)   bands (ev):

   -66.9966 -66.9724 -66.9630 -66.9628 -66.9469 -66.9450 -66.9443 -66.9383
   -66.9304 -66.9278 -66.9274 -66.9247 -66.9240 -66.9232 -66.9165 -66.9157
   -66.9141 -66.9132 -66.9100 -66.9062 -66.9048 -66.9030 -66.9012 -66.9002
   -66.7431 -66.7253 -66.7188 -66.7183 -66.7058 -66.7049 -66.7011 -66.6945
   -66.6940 -66.6916 -66.6876 -66.6872 -66.6672 -66.6321 -66.6254 -66.6214
   -66.6179 -66.6093 -66.5820 -66.5809 -66.5793 -66.5783 -66.5700 -66.5695
   -38.8009 -38.7811 -38.7735 -38.7705 -38.6702 -38.6699 -38.6687 -38.6431
   -38.6346 -38.6259 -38.6255 -38.6224 -38.5972 -38.5818 -38.5683 -38.5638
   -38.5377 -38.5344 -38.5254 -38.5188 -38.5115 -38.5101 -38.5048 -38.4825
   -38.4669 -38.4659 -38.4643 -38.4427 -38.3844 -38.3825 -38.3774 -38.3721
   -38.3694 -38.3635 -38.3616 -38.3611 -38.3565 -38.3488 -38.3324 -38.3296
   -38.3276 -38.3199 -38.3144 -38.3124 -38.2963 -38.2830 -38.2790 -38.2679
   -38.2661 -38.2645 -38.2641 -38.2640 -38.2605 -38.2582 -38.2512 -38.2472
   -38.2450 -38.2436 -38.2390 -38.2324 -38.2318 -38.2276 -38.2193 -38.2154
   -38.2132 -38.2103 -38.2095 -38.1982 -38.1937 -38.1914 -38.1896 -38.1688
   -38.1662 -38.1573 -38.1560 -38.1527 -38.1502 -38.1403 -38.1397 -38.1303
   -38.1268 -38.1225 -38.1215 -38.1077 -38.1064 -38.0992 -38.0960 -38.0906
   -38.0833 -38.0813 -38.0700 -38.0582 -38.0529 -38.0498 -38.0479 -38.0402
   -38.0381 -38.0307 -38.0279 -38.0238 -38.0228 -38.0088 -38.0071 -38.0042
   -37.9737 -37.9693 -37.9668 -37.9590 -37.9584 -37.9569 -37.9491 -37.9460
   -37.9424 -37.9402 -37.9385 -37.9248 -37.9231 -37.9172 -37.9149 -37.9117
   -37.9098 -37.9007 -37.9004 -37.8966 -37.8702 -37.8665 -37.8660 -37.8576
   -37.8570 -37.8543 -37.8440 -37.8365 -37.8291 -37.8130 -37.8059 -37.8049
   -37.7017 -37.6958 -37.6876 -37.6734 -37.6727 -37.6694 -37.6588 -37.6530
   -12.4372 -12.0100 -11.9887 -11.8541 -11.8522 -11.7218 -11.6362 -11.6321
   -11.5606 -11.5577 -11.4797 -11.3353 -11.3312 -11.2851 -11.2663 -11.2636
   -11.2540 -11.2003 -11.0358 -11.0145  -8.8249  -8.7109  -8.7106  -8.6993
    -8.6586  -2.9732  -2.9695  -2.9296  -2.8172  -2.7461  -2.7340  -2.7134
    -2.7049  -2.7035  -2.5920  -2.5869  -2.4417  -2.3991  -2.3590  -2.3467
    -2.3465  -2.2905  -2.2372  -2.2141  -2.2036  -2.1577  -1.9621  -1.7827
    -1.7664  -1.7426  -1.6518  -1.6341  -1.5898  -1.5288  -1.5120  -1.4753
    -1.4621  -1.4186  -1.3990  -1.3906  -1.3746  -1.3370  -1.3190  -1.3121
    -1.2896  -1.2529  -1.2493  -1.2314  -1.1209  -1.0785  -1.0627  -1.0144
    -0.9567  -0.9305  -0.9045  -0.8887  -0.8732  -0.8344  -0.8321  -0.8250
    -0.8035  -0.7750  -0.7187  -0.6523  -0.6499  -0.5051  -0.4613  -0.4590
     0.7783   1.1883   1.2199   1.2201   1.4591   1.4594   1.4687   1.4716
     1.5358   1.5543   1.5553   1.5742   1.6351   1.6736   1.6764   1.6882
     1.7898   1.7923   1.8352   2.0752   2.0758   2.1188   2.1686   2.1716
     2.2243   2.2762   2.3086   2.3134   2.3366   2.4345   2.4377   2.4527
     2.4628   2.4652   2.5275   2.5575   2.5602   2.5772   2.5992   2.6284
     2.7317   2.8103   2.8119   2.8743   3.0310   3.0783   3.1410   3.2101
     3.2115   3.2437   3.2491   3.2772   3.3727   3.3774   3.4005   3.4080
     3.4091   3.4486   3.5260   3.5967   3.6082   3.6221   3.6480   3.6877
     3.7114   3.7213   3.7338   3.7427   3.7864   3.7908   3.7949   3.8759
     3.9829   4.0043   4.0241   4.0362   4.0469   4.0560   4.0694   4.1566
     4.1812   4.1951   4.2520   4.2604   4.2893   4.3031   4.3112   4.3185
     4.3394   4.3672   4.3866   4.3882   4.4154   4.4833   4.4954   4.5045
     4.5102   4.5788   4.5860   4.6655   4.7002   4.7388   4.7597   4.7744
     4.7948   4.8049   4.8486   4.8608   4.9072   4.9364   4.9510   4.9558
     4.9867   5.0008   5.0147   5.0744   5.0927   5.1427   5.1532   5.1929
     5.2064   5.2415   5.3054   5.3213   5.3394   5.3677   5.4044   5.4622
     5.4770   5.4815   5.4825   5.5340   5.5539   5.5636   5.5725   5.5854
     5.5880   5.6802   5.7065   5.7320   5.7542   5.7610   5.7675   5.7728
     5.7942   5.8169   5.8245   5.8410   5.8506   5.8907   5.8966   5.9033
     5.9071   5.9365   5.9536   5.9775   5.9820   5.9906   6.0244   6.0286
     6.0379   6.0458   6.0522   6.0586   6.0727   6.0750   6.1046   6.1881
     6.2123   6.2174   6.2374   6.2599   6.2614   6.2647   6.2670   6.3151
     6.3263   6.3271   6.3288   6.3786   6.4095   6.4162   6.4222   6.4670
     6.4768   6.4853   6.5474   6.5530   6.5632   6.5705   6.6595   6.6679
     6.6796   6.7053   6.7066   6.7281   6.7491   6.7666   6.8103   6.8126

          k = 0.5000-0.2887 0.0000 (108310 PWs)   bands (ev):

   -66.9872 -66.9862 -66.9653 -66.9647 -66.9408 -66.9395 -66.9377 -66.9364
   -66.9334 -66.9330 -66.9267 -66.9252 -66.9249 -66.9246 -66.9203 -66.9193
   -66.9111 -66.9086 -66.9081 -66.9073 -66.9050 -66.9031 -66.9024 -66.9012
   -66.7358 -66.7357 -66.7203 -66.7198 -66.7007 -66.6999 -66.6980 -66.6976
   -66.6930 -66.6924 -66.6896 -66.6893 -66.6666 -66.6338 -66.6251 -66.6211
   -66.6187 -66.6083 -66.5817 -66.5798 -66.5794 -66.5754 -66.5742 -66.5691
   -38.7922 -38.7910 -38.7689 -38.7665 -38.6649 -38.6610 -38.6599 -38.6568
   -38.6363 -38.6321 -38.6292 -38.6277 -38.5963 -38.5945 -38.5710 -38.5658
   -38.5350 -38.5295 -38.5241 -38.5222 -38.5195 -38.5143 -38.4979 -38.4943
   -38.4601 -38.4579 -38.4476 -38.4462 -38.3935 -38.3913 -38.3691 -38.3674
   -38.3618 -38.3608 -38.3535 -38.3532 -38.3425 -38.3408 -38.3312 -38.3295
   -38.3253 -38.3251 -38.3188 -38.3148 -38.3043 -38.3026 -38.2889 -38.2696
   -38.2682 -38.2678 -38.2652 -38.2645 -38.2638 -38.2600 -38.2586 -38.2500
   -38.2464 -38.2455 -38.2448 -38.2372 -38.2344 -38.2331 -38.2140 -38.2107
   -38.2069 -38.1953 -38.1943 -38.1911 -38.1846 -38.1825 -38.1816 -38.1781
   -38.1746 -38.1661 -38.1635 -38.1612 -38.1395 -38.1356 -38.1344 -38.1303
   -38.1274 -38.1274 -38.1202 -38.1150 -38.1113 -38.1075 -38.0984 -38.0901
   -38.0800 -38.0779 -38.0620 -38.0571 -38.0547 -38.0493 -38.0455 -38.0448
   -38.0365 -38.0357 -38.0242 -38.0188 -38.0188 -38.0129 -37.9942 -37.9927
   -37.9829 -37.9790 -37.9717 -37.9671 -37.9571 -37.9557 -37.9499 -37.9431
   -37.9404 -37.9370 -37.9332 -37.9298 -37.9184 -37.9169 -37.9127 -37.9114
   -37.9035 -37.9031 -37.9026 -37.9020 -37.8678 -37.8675 -37.8638 -37.8633
   -37.8537 -37.8529 -37.8441 -37.8438 -37.8272 -37.8103 -37.8090 -37.8058
   -37.6958 -37.6902 -37.6881 -37.6778 -37.6716 -37.6692 -37.6648 -37.6548
   -12.2608 -12.2595 -11.8884 -11.8872 -11.8746 -11.8725 -11.6435 -11.6403
   -11.4725 -11.4707 -11.3467 -11.3466 -11.3354 -11.3310 -11.3092 -11.3085
   -11.1277 -11.1260 -11.1073 -11.1071  -8.8250  -8.7123  -8.7123  -8.6777
    -8.6776  -2.9415  -2.9334  -2.8430  -2.8400  -2.7774  -2.7752  -2.7731
    -2.7698  -2.6481  -2.6473  -2.5322  -2.5295  -2.3744  -2.3652  -2.3092
    -2.3006  -2.2531  -2.2432  -2.1307  -2.1183  -2.0380  -2.0355  -1.8502
    -1.8457  -1.7467  -1.6998  -1.6864  -1.6654  -1.5999  -1.5670  -1.5213
    -1.4502  -1.4442  -1.4420  -1.4150  -1.3607  -1.3137  -1.2888  -1.2632
    -1.2613  -1.2486  -1.2448  -1.1322  -1.1269  -1.0497  -1.0495  -1.0355
    -1.0223  -0.9273  -0.9013  -0.8911  -0.8544  -0.8480  -0.8357  -0.8206
    -0.7318  -0.7314  -0.6703  -0.6659  -0.6227  -0.6200  -0.4850  -0.4829
     1.0212   1.0227   1.2078   1.2082   1.4372   1.4387   1.4593   1.4598
     1.5352   1.5354   1.5515   1.5517   1.6920   1.6934   1.7018   1.7080
     1.9281   1.9326   1.9347   1.9373   2.1100   2.1105   2.1445   2.1495
     2.2382   2.2409   2.3707   2.3731   2.3950   2.3958   2.4257   2.4272
     2.4646   2.4674   2.4766   2.4804   2.5851   2.5899   2.7573   2.7635
     2.8102   2.8150   2.8317   2.8362   3.0282   3.0320   3.0500   3.0505
     3.1202   3.1208   3.2131   3.2226   3.3371   3.3382   3.3990   3.4027
     3.4309   3.4372   3.5309   3.5311   3.6168   3.6382   3.6793   3.6828
     3.7417   3.7494   3.8169   3.8302   3.8818   3.8914   3.9121   3.9231
     3.9455   3.9525   3.9824   4.0004   4.0061   4.0212   4.1387   4.1445
     4.1628   4.1751   4.2587   4.2751   4.2994   4.3209   4.3338   4.3551
     4.3689   4.3718   4.3743   4.3939   4.4493   4.4705   4.4830   4.4888
     4.4927   4.4950   4.6120   4.6194   4.6213   4.6441   4.6901   4.6923
     4.7103   4.7120   4.8181   4.8351   4.9949   5.0007   5.0056   5.0088
     5.0102   5.0431   5.0757   5.1145   5.1260   5.1313   5.1463   5.1548
     5.1922   5.1974   5.2737   5.3270   5.3543   5.3567   5.3669   5.3700
     5.4472   5.4489   5.4777   5.5168   5.5264   5.5363   5.5732   5.5915
     5.5974   5.6082   5.6106   5.6765   5.7138   5.7180   5.7533   5.7536
     5.7668   5.7769   5.7888   5.8088   5.8327   5.8630   5.8835   5.8875
     5.8889   5.9109   5.9218   5.9276   5.9689   5.9915   6.0144   6.0182
     6.0466   6.0685   6.0854   6.1301   6.1570   6.1737   6.1766   6.1839
     6.1894   6.1983   6.1995   6.2120   6.2205   6.2256   6.3493   6.3530
     6.3590   6.3650   6.3976   6.4031   6.4376   6.4393   6.4551   6.4602
     6.4739   6.4835   6.5061   6.5104   6.6204   6.6231   6.6344   6.6358
     6.6640   6.6711   6.7241   6.7325   6.8572   6.8659   6.8679   6.8773

          k =-0.5000-0.2887 0.0000 (108310 PWs)   bands (ev):

   -66.9871 -66.9863 -66.9652 -66.9649 -66.9406 -66.9398 -66.9372 -66.9362
   -66.9336 -66.9332 -66.9267 -66.9253 -66.9249 -66.9246 -66.9202 -66.9192
   -66.9099 -66.9089 -66.9085 -66.9079 -66.9046 -66.9033 -66.9023 -66.9012
   -66.7359 -66.7356 -66.7203 -66.7197 -66.7009 -66.6998 -66.6979 -66.6976
   -66.6930 -66.6925 -66.6898 -66.6892 -66.6667 -66.6325 -66.6258 -66.6236
   -66.6169 -66.6080 -66.5822 -66.5800 -66.5792 -66.5759 -66.5723 -66.5701
   -38.7923 -38.7910 -38.7691 -38.7663 -38.6651 -38.6613 -38.6593 -38.6568
   -38.6364 -38.6320 -38.6292 -38.6281 -38.5964 -38.5948 -38.5704 -38.5657
   -38.5350 -38.5298 -38.5245 -38.5225 -38.5186 -38.5144 -38.4980 -38.4949
   -38.4599 -38.4583 -38.4472 -38.4458 -38.3939 -38.3916 -38.3687 -38.3675
   -38.3618 -38.3608 -38.3534 -38.3529 -38.3426 -38.3408 -38.3310 -38.3298
   -38.3254 -38.3245 -38.3201 -38.3148 -38.3039 -38.3028 -38.2881 -38.2693
   -38.2682 -38.2677 -38.2649 -38.2645 -38.2638 -38.2599 -38.2581 -38.2503
   -38.2471 -38.2459 -38.2448 -38.2369 -38.2341 -38.2332 -38.2139 -38.2110
   -38.2056 -38.1967 -38.1953 -38.1901 -38.1843 -38.1819 -38.1814 -38.1784
   -38.1734 -38.1666 -38.1636 -38.1634 -38.1399 -38.1371 -38.1336 -38.1303
   -38.1277 -38.1275 -38.1163 -38.1147 -38.1121 -38.1091 -38.0982 -38.0906
   -38.0796 -38.0784 -38.0620 -38.0565 -38.0546 -38.0506 -38.0452 -38.0445
   -38.0369 -38.0355 -38.0239 -38.0191 -38.0178 -38.0131 -37.9944 -37.9933
   -37.9836 -37.9789 -37.9698 -37.9673 -37.9574 -37.9559 -37.9480 -37.9432
   -37.9399 -37.9375 -37.9338 -37.9303 -37.9200 -37.9162 -37.9128 -37.9111
   -37.9036 -37.9031 -37.9028 -37.9019 -37.8680 -37.8673 -37.8637 -37.8634
   -37.8536 -37.8529 -37.8443 -37.8437 -37.8273 -37.8109 -37.8074 -37.8067
   -37.6999 -37.6886 -37.6837 -37.6790 -37.6728 -37.6676 -37.6657 -37.6552
   -12.2608 -12.2595 -11.8887 -11.8868 -11.8748 -11.8723 -11.6438 -11.6399
   -11.4728 -11.4704 -11.3468 -11.3465 -11.3362 -11.3304 -11.3094 -11.3083
   -11.1281 -11.1256 -11.1073 -11.1071  -8.8250  -8.7125  -8.7122  -8.6778
    -8.6775  -2.9409  -2.9325  -2.8424  -2.8405  -2.7780  -2.7766  -2.7723
    -2.7694  -2.6497  -2.6475  -2.5318  -2.5299  -2.3761  -2.3647  -2.3065
    -2.3022  -2.2509  -2.2446  -2.1309  -2.1189  -2.0471  -2.0357  -1.8443
    -1.8422  -1.7399  -1.7036  -1.6738  -1.6589  -1.5999  -1.5677  -1.5168
    -1.4763  -1.4436  -1.4370  -1.4104  -1.3819  -1.3034  -1.2924  -1.2630
    -1.2614  -1.2483  -1.2429  -1.1291  -1.1279  -1.0509  -1.0495  -1.0305
    -1.0273  -0.9199  -0.9014  -0.8993  -0.8549  -0.8504  -0.8353  -0.8175
    -0.7317  -0.7299  -0.6690  -0.6682  -0.6226  -0.6189  -0.4849  -0.4824
     1.0215   1.0232   1.2078   1.2080   1.4373   1.4390   1.4593   1.4598
     1.5352   1.5354   1.5515   1.5516   1.6920   1.6938   1.7023   1.7076
     1.9281   1.9329   1.9361   1.9373   2.1094   2.1111   2.1453   2.1496
     2.2379   2.2406   2.3708   2.3731   2.3950   2.3958   2.4255   2.4272
     2.4645   2.4676   2.4754   2.4806   2.5850   2.5908   2.7590   2.7601
     2.8102   2.8142   2.8315   2.8377   3.0273   3.0321   3.0485   3.0500
     3.1200   3.1208   3.2150   3.2215   3.3383   3.3392   3.3982   3.4018
     3.4317   3.4366   3.5320   3.5323   3.6202   3.6372   3.6785   3.6797
     3.7391   3.7490   3.8242   3.8274   3.8797   3.8820   3.9137   3.9225
     3.9496   3.9536   3.9771   4.0022   4.0080   4.0166   4.1364   4.1487
     4.1632   4.1763   4.2711   4.2870   4.2960   4.2999   4.3347   4.3592
     4.3656   4.3719   4.3777   4.3915   4.4532   4.4669   4.4828   4.4871
     4.4893   4.5008   4.6113   4.6200   4.6268   4.6437   4.6900   4.6923
     4.7099   4.7115   4.8234   4.8356   4.9943   5.0012   5.0053   5.0067
     5.0096   5.0389   5.0725   5.1114   5.1275   5.1317   5.1465   5.1537
     5.1937   5.1995   5.2748   5.3236   5.3544   5.3566   5.3670   5.3705
     5.4474   5.4500   5.4773   5.5214   5.5330   5.5366   5.5759   5.5860
     5.5915   5.6008   5.6120   5.6736   5.7130   5.7196   5.7526   5.7563
     5.7679   5.7746   5.7813   5.8064   5.8448   5.8609   5.8807   5.8863
     5.8882   5.9106   5.9225   5.9277   5.9639   5.9970   6.0145   6.0178
     6.0475   6.0694   6.0853   6.1288   6.1585   6.1748   6.1786   6.1858
     6.1874   6.1980   6.2017   6.2115   6.2197   6.2255   6.3495   6.3565
     6.3596   6.3637   6.3944   6.4030   6.4370   6.4416   6.4553   6.4604
     6.4741   6.4835   6.5081   6.5102   6.6204   6.6235   6.6351   6.6367
     6.6650   6.6725   6.7237   6.7294   6.8602   6.8669   6.8682   6.8785

          k =-0.2500 0.4330 0.0000 (108308 PWs)   bands (ev):

   -66.9899 -66.9781 -66.9775 -66.9539 -66.9460 -66.9424 -66.9363 -66.9343
   -66.9338 -66.9313 -66.9305 -66.9250 -66.9244 -66.9212 -66.9198 -66.9183
   -66.9149 -66.9094 -66.9069 -66.9064 -66.9045 -66.9038 -66.9019 -66.9016
   -66.7381 -66.7294 -66.7290 -66.7126 -66.7059 -66.6997 -66.6966 -66.6962
   -66.6928 -66.6921 -66.6903 -66.6894 -66.6666 -66.6328 -66.6271 -66.6212
   -66.6172 -66.6087 -66.5809 -66.5805 -66.5795 -66.5763 -66.5729 -66.5695
   -38.7942 -38.7832 -38.7812 -38.7599 -38.6648 -38.6644 -38.6580 -38.6540
   -38.6392 -38.6331 -38.6278 -38.6264 -38.5966 -38.5873 -38.5871 -38.5478
   -38.5415 -38.5300 -38.5293 -38.5236 -38.5223 -38.5060 -38.5025 -38.4898
   -38.4562 -38.4545 -38.4535 -38.4426 -38.4188 -38.3717 -38.3709 -38.3700
   -38.3609 -38.3588 -38.3500 -38.3465 -38.3453 -38.3401 -38.3397 -38.3312
   -38.3251 -38.3195 -38.3180 -38.3159 -38.3012 -38.2946 -38.2925 -38.2877
   -38.2697 -38.2687 -38.2654 -38.2616 -38.2583 -38.2556 -38.2511 -38.2507
   -38.2490 -38.2478 -38.2418 -38.2374 -38.2344 -38.2335 -38.2317 -38.2040
   -38.1993 -38.1987 -38.1953 -38.1879 -38.1858 -38.1832 -38.1791 -38.1750
   -38.1742 -38.1673 -38.1666 -38.1630 -38.1412 -38.1341 -38.1327 -38.1299
   -38.1242 -38.1239 -38.1215 -38.1175 -38.1123 -38.1096 -38.1055 -38.0838
   -38.0796 -38.0790 -38.0605 -38.0600 -38.0565 -38.0518 -38.0499 -38.0443
   -38.0362 -38.0265 -38.0249 -38.0198 -38.0155 -38.0036 -38.0024 -37.9973
   -37.9834 -37.9729 -37.9719 -37.9663 -37.9588 -37.9528 -37.9490 -37.9466
   -37.9437 -37.9366 -37.9354 -37.9294 -37.9185 -37.9144 -37.9139 -37.9097
   -37.9076 -37.9058 -37.8979 -37.8977 -37.8724 -37.8717 -37.8605 -37.8596
   -37.8579 -37.8486 -37.8482 -37.8407 -37.8274 -37.8111 -37.8075 -37.8064
   -37.6962 -37.6922 -37.6825 -37.6822 -37.6729 -37.6661 -37.6655 -37.6549
   -12.3169 -12.1040 -12.1030 -11.9099 -11.7764 -11.7737 -11.7261 -11.5589
   -11.5328 -11.4228 -11.4041 -11.4025 -11.3873 -11.3226 -11.2124 -11.2087
   -11.1879 -11.1868 -11.0993 -11.0794  -8.8250  -8.7210  -8.6937  -8.6934
    -8.6719  -2.9885  -2.8886  -2.8863  -2.8690  -2.7584  -2.7566  -2.7165
    -2.6806  -2.6289  -2.6157  -2.5948  -2.5905  -2.5473  -2.3569  -2.2302
    -2.2184  -2.2105  -2.1894  -2.1356  -2.1277  -2.0874  -2.0859  -1.9592
    -1.8097  -1.7832  -1.7134  -1.6841  -1.5926  -1.5501  -1.5460  -1.4847
    -1.4632  -1.4400  -1.4156  -1.4034  -1.3708  -1.3679  -1.3307  -1.3154
    -1.2936  -1.1871  -1.1850  -1.1413  -1.1403  -1.1188  -1.0734  -0.9597
    -0.9483  -0.9325  -0.9075  -0.8756  -0.8678  -0.8533  -0.8284  -0.8042
    -0.8026  -0.7535  -0.7490  -0.6599  -0.5634  -0.5525  -0.5499  -0.4552
     0.9552   1.1393   1.1403   1.2405   1.4244   1.4407   1.4420   1.4438
     1.4873   1.5685   1.5689   1.5961   1.6609   1.6796   1.6817   1.7386
     1.8565   1.9756   1.9766   2.0639   2.0652   2.1279   2.1303   2.1867
     2.1938   2.2541   2.2555   2.2885   2.3631   2.3682   2.4034   2.4037
     2.4544   2.5041   2.5707   2.5980   2.5987   2.6795   2.6826   2.7959
     2.8020   2.8031   2.8377   2.8405   2.9377   2.9432   2.9434   3.0095
     3.1913   3.2546   3.3005   3.3014   3.3452   3.3463   3.3523   3.4398
     3.4403   3.4445   3.4613   3.5697   3.5875   3.5908   3.6522   3.7161
     3.7246   3.7611   3.7683   3.7949   3.7987   3.8555   3.8801   3.8893
     4.0197   4.0362   4.0614   4.0726   4.0777   4.0865   4.0905   4.1282
     4.1597   4.1713   4.2108   4.2468   4.2476   4.3069   4.3102   4.3336
     4.3636   4.3736   4.3972   4.4104   4.4333   4.4455   4.4713   4.4802
     4.5658   4.5729   4.5968   4.6048   4.6093   4.6130   4.6508   4.6854
     4.7407   4.8704   4.8716   4.8895   4.8947   4.9084   4.9136   4.9180
     4.9662   4.9993   5.0497   5.0780   5.1318   5.1651   5.1735   5.1780
     5.2071   5.2863   5.3031   5.3270   5.3323   5.3557   5.4007   5.4355
     5.4458   5.4477   5.4640   5.4927   5.5122   5.5277   5.5602   5.5974
     5.6098   5.6374   5.6653   5.7195   5.7311   5.7395   5.7493   5.7508
     5.7837   5.7842   5.7874   5.7904   5.8043   5.8627   5.8677   5.8869
     5.8878   5.9001   5.9169   5.9354   5.9409   5.9796   5.9865   6.0381
     6.0405   6.0543   6.0770   6.0859   6.1040   6.1196   6.1220   6.1768
     6.1859   6.1930   6.2227   6.2296   6.2490   6.2823   6.2987   6.3149
     6.3501   6.3597   6.3831   6.3860   6.4423   6.4700   6.4770   6.5088
     6.5138   6.5153   6.5759   6.5781   6.6072   6.6263   6.6598   6.6829
     6.6844   6.6901   6.7263   6.7372   6.7473   6.8061   6.8616   6.8653

          k = 0.5000-0.0000 0.0000 (108308 PWs)   bands (ev):

   -66.9899 -66.9782 -66.9774 -66.9540 -66.9458 -66.9424 -66.9363 -66.9345
   -66.9336 -66.9312 -66.9305 -66.9250 -66.9245 -66.9212 -66.9197 -66.9185
   -66.9145 -66.9095 -66.9072 -66.9062 -66.9046 -66.9035 -66.9022 -66.9014
   -66.7381 -66.7294 -66.7291 -66.7126 -66.7059 -66.6997 -66.6966 -66.6962
   -66.6928 -66.6921 -66.6903 -66.6895 -66.6666 -66.6326 -66.6275 -66.6203
[...]
     6.5849   6.6293   6.6559   6.6581   6.6680   6.7266   6.7817   6.7828

          k = 0.5000-0.0000 0.0000 (108308 PWs)   bands (ev):

   -67.0783 -67.0666 -67.0665 -67.0435 -67.0359 -67.0277 -67.0269 -67.0222
   -67.0220 -67.0193 -67.0191 -67.0166 -67.0164 -67.0133 -67.0123 -67.0030
   -66.9985 -66.9927 -66.9898 -66.9895 -66.9865 -66.9863 -66.9844 -66.9841
   -66.8353 -66.8275 -66.8272 -66.8164 -66.7899 -66.7855 -66.7847 -66.7846
   -66.7798 -66.7796 -66.7790 -66.7771 -66.7307 -66.7240 -66.7218 -66.7137
   -66.6818 -66.6790 -66.6753 -66.6738 -66.6706 -66.6703 -66.6687 -66.6675
   -38.8707 -38.8582 -38.8578 -38.8370 -38.7444 -38.7440 -38.7378 -38.7327
   -38.7210 -38.7177 -38.7167 -38.7163 -38.6824 -38.6698 -38.6697 -38.6326
   -38.6284 -38.6215 -38.6214 -38.6179 -38.6068 -38.6032 -38.6026 -38.5981
   -38.5421 -38.5414 -38.5411 -38.5353 -38.5266 -38.5187 -38.5180 -38.5177
   -38.5046 -38.4449 -38.4419 -38.4405 -38.4401 -38.4276 -38.4273 -38.4159
   -38.4133 -38.4095 -38.4091 -38.4041 -38.3886 -38.3803 -38.3799 -38.3759
   -38.3755 -38.3714 -38.3685 -38.3661 -38.3563 -38.3560 -38.3501 -38.3480
   -38.3408 -38.3397 -38.3342 -38.3244 -38.3237 -38.3194 -38.3190 -38.2905
   -38.2902 -38.2876 -38.2863 -38.2860 -38.2751 -38.2747 -38.2711 -38.2573
   -38.2553 -38.2538 -38.2537 -38.2512 -38.2299 -38.2237 -38.2233 -38.2152
   -38.2137 -38.2120 -38.2119 -38.2050 -38.2007 -38.1794 -38.1791 -38.1775
   -38.1518 -38.1503 -38.1432 -38.1428 -38.1379 -38.1368 -38.1341 -38.1337
   -38.1117 -38.1052 -38.0992 -38.0976 -38.0970 -38.0831 -38.0822 -38.0819
   -38.0654 -38.0504 -38.0486 -38.0465 -38.0356 -38.0350 -38.0282 -38.0273
   -38.0226 -38.0216 -38.0206 -38.0095 -38.0055 -38.0022 -38.0020 -38.0002
   -37.9986 -37.9974 -37.9923 -37.9920 -37.9537 -37.9534 -37.9479 -37.9425
   -37.9404 -37.9316 -37.9314 -37.9236 -37.9105 -37.9061 -37.9053 -37.9049
   -37.7805 -37.7791 -37.7768 -37.7672 -37.7638 -37.7542 -37.7533 -37.7473
   -12.3581 -12.1439 -12.1432 -11.9571 -11.8142 -11.8132 -11.7756 -11.6118
   -11.5324 -11.4715 -11.4522 -11.4519 -11.3899 -11.3798 -11.2649 -11.2615
   -11.1753 -11.1740 -11.1532 -11.0573  -9.3367  -9.2877  -9.2869  -9.2477
    -7.0056  -3.0352  -2.9319  -2.9307  -2.9122  -2.7977  -2.7969  -2.7474
    -2.7198  -2.6613  -2.6578  -2.6273  -2.6263  -2.5784  -2.4030  -2.2617
    -2.2549  -2.2542  -2.2060  -2.1681  -2.1672  -2.1207  -2.1196  -1.9920
    -1.8075  -1.8054  -1.7277  -1.7060  -1.6373  -1.5673  -1.5668  -1.4971
    -1.4482  -1.4432  -1.4165  -1.4160  -1.4117  -1.4005  -1.3379  -1.2214
    -1.2201  -1.1770  -1.1754  -1.1437  -1.0972  -0.9945  -0.9845  -0.9834
    -0.9293  -0.9177  -0.8929  -0.8783  -0.8652  -0.8633  -0.7691  -0.7650
    -0.6978  -0.5890  -0.5758  -0.5728  -0.4336   0.4908   0.5770   0.5966
     0.6679   0.7238   0.7242   0.7620   0.9589   0.9618   1.0064   1.0097
     1.0100   1.0684   1.0747   1.0753   1.2706   1.4097   1.4117   1.6126
     1.7675   1.8755   1.8758   1.9059   1.9770   1.9794   1.9912   1.9919
     2.0791   2.1590   2.1606   2.2276   2.3009   2.3023   2.3349   2.3367
     2.3774   2.4361   2.4933   2.5047   2.5068   2.5958   2.5962   2.6513
     2.7216   2.7238   2.7344   2.7595   2.8352   2.8372   2.8541   2.9405
     3.0822   3.1695   3.2147   3.2182   3.2618   3.2634   3.2828   3.3555
     3.3630   3.3646   3.3748   3.4658   3.4675   3.4814   3.5681   3.6339
     3.6394   3.6698   3.6743   3.7031   3.7064   3.7730   3.7743   3.7882
     3.9551   3.9562   3.9608   3.9854   3.9877   4.0022   4.0041   4.0382
     4.0664   4.1203   4.1366   4.1508   4.1530   4.2174   4.2204   4.2229
     4.2592   4.2636   4.3082   4.3352   4.3569   4.3585   4.3772   4.3803
     4.4730   4.4743   4.4969   4.5104   4.5183   4.5207   4.5354   4.5852
     4.6144   4.7571   4.7754   4.7782   4.8158   4.8185   4.8421   4.8528
     4.8797   4.9509   4.9657   4.9717   5.0500   5.0541   5.0929   5.1103
     5.1128   5.1764   5.2164   5.2419   5.2621   5.2655   5.2986   5.3457
     5.3625   5.3635   5.3688   5.4042   5.4155   5.4377   5.4398   5.5213
     5.5234   5.5286   5.5560   5.6505   5.6564   5.6574   5.6584   5.6706
     5.7026   5.7041   5.7057   5.7220   5.7374   5.7892   5.7909   5.7921
     5.8000   5.8126   5.8329   5.8480   5.8499   5.8867   5.9120   5.9587
     5.9608   5.9760   5.9964   6.0013   6.0265   6.0278   6.0468   6.1130
     6.1144   6.1299   6.1587   6.1594   6.1890   6.2188   6.2250   6.2418
     6.2776   6.2811   6.2876   6.2957   6.3811   6.3928   6.3946   6.4379
     6.4415   6.4421   6.4872   6.4880   6.5286   6.5673   6.5805   6.5840
     6.5848   6.6288   6.6558   6.6583   6.6680   6.7268   6.7819   6.7834

     the Fermi energy is     5.1191 ev

!    total energy              =  -12616.46623031 Ry
     total all-electron energy =   -103594.970037 Ry
     estimated scf accuracy    <          6.7E-11 Ry
     smearing contrib. (-TS)   =       0.00928178 Ry
     internal energy E=F+TS    =  -12616.47551209 Ry

     The total energy is F=E-TS. E is the sum of the following terms:
     one-electron contribution =  -66914.28853325 Ry
     hartree contribution      =   33568.82240711 Ry
     xc contribution           =   -1216.02848604 Ry
     ewald contribution        =   25707.37970106 Ry
     DFT-D3 Dispersion         =      -1.07838688 Ry
     one-center paw contrib.   =   -3761.28221410 Ry

     convergence has been achieved in  35 iterations

     negative rho (up, down):  1.583E-04 0.000E+00

     Forces acting on atoms (cartesian axes, Ry/au):

     atom    1 type  1   force =    -0.00002716    0.00001672   -0.00015381
     atom    2 type  1   force =     0.00004392    0.00000217   -0.00026310
     atom    3 type  1   force =     0.00006492    0.00003598   -0.00008171
     atom    4 type  1   force =    -0.00005786   -0.00001293   -0.00032790
     atom    5 type  1   force =    -0.00010737   -0.00012837    0.00002273
     atom    6 type  1   force =    -0.00007762   -0.00019563    0.00003834
     atom    7 type  2   force =    -0.00008829   -0.00018205    0.00021529
     atom    8 type  2   force =    -0.00005241    0.00003890   -0.00014410
     atom    9 type  2   force =     0.00010316   -0.00005809    0.00005809
     atom   10 type  1   force =    -0.00008811   -0.00003471   -0.00011383
     atom   11 type  1   force =    -0.00002244   -0.00023565   -0.00008148
     atom   12 type  1   force =    -0.00000680    0.00005538   -0.00036855
     atom   13 type  1   force =    -0.00018534   -0.00034103    0.00015454
     atom   14 type  1   force =    -0.00006359    0.00007320   -0.00002000
     atom   15 type  1   force =     0.00024641    0.00024919    0.00010484
     atom   16 type  2   force =     0.00012010   -0.00003239   -0.00030642
     atom   17 type  2   force =     0.00016904    0.00011309    0.00067692
     atom   18 type  2   force =    -0.00008570    0.00007946    0.00044107
     atom   19 type  1   force =    -0.00000802    0.00003139   -0.00009461
     atom   20 type  1   force =     0.00014907   -0.00013894    0.00020424
     atom   21 type  1   force =    -0.00016190   -0.00016861   -0.00023893
     atom   22 type  1   force =    -0.00008802    0.00002705    0.00005422
     atom   23 type  1   force =     0.00008955    0.00001060    0.00003975
     atom   24 type  1   force =     0.00037908   -0.00011195   -0.00032184
     atom   25 type  2   force =     0.00013142   -0.00003811    0.00027287
     atom   26 type  2   force =    -0.00001304   -0.00012534    0.00012748
     atom   27 type  2   force =    -0.00001903   -0.00002904    0.00036029
     atom   28 type  1   force =    -0.00001222    0.00019098   -0.00003743
     atom   29 type  1   force =     0.00004304    0.00000638   -0.00003077
     atom   30 type  1   force =    -0.00001590    0.00017975    0.00005973
     atom   31 type  1   force =    -0.00015611   -0.00016452   -0.00018352
     atom   32 type  1   force =     0.00003092    0.00004761   -0.00004476
     atom   33 type  1   force =     0.00006346    0.00001622    0.00005600
     atom   34 type  2   force =    -0.00003903   -0.00014148   -0.00034706
     atom   35 type  2   force =    -0.00004360   -0.00013466    0.00035995
     atom   36 type  2   force =     0.00000015    0.00003795    0.00003004
     atom   37 type  1   force =    -0.00008417    0.00009909   -0.00004093
     atom   38 type  1   force =     0.00017460    0.00004688   -0.00015558
     atom   39 type  1   force =    -0.00006079   -0.00010963   -0.00026775
     atom   40 type  1   force =     0.00016658   -0.00006714    0.00008437
     atom   41 type  1   force =    -0.00015070    0.00021379   -0.00037288
     atom   42 type  1   force =     0.00002041    0.00003893    0.00005562
     atom   43 type  2   force =     0.00001452   -0.00000979    0.00020777
     atom   44 type  2   force =    -0.00001074   -0.00004211    0.00037690
     atom   45 type  2   force =    -0.00005075    0.00001708   -0.00012271
     atom   46 type  1   force =    -0.00003843    0.00005543   -0.00031197
     atom   47 type  1   force =     0.00009775    0.00015945    0.00010184
     atom   48 type  1   force =     0.00022801   -0.00007894   -0.00004359
     atom   49 type  1   force =    -0.00034254   -0.00011799    0.00001316
     atom   50 type  1   force =    -0.00003906   -0.00002944    0.00025120
     atom   51 type  1   force =     0.00007037    0.00016073   -0.00020714
     atom   52 type  2   force =    -0.00011949    0.00005740   -0.00040999
     atom   53 type  2   force =    -0.00006410    0.00006039    0.00002022
     atom   54 type  2   force =    -0.00020859   -0.00011494    0.00051151
     atom   55 type  1   force =     0.00001747   -0.00007856   -0.00010884
     atom   56 type  1   force =    -0.00012196   -0.00005584   -0.00011033
     atom   57 type  1   force =     0.00002014   -0.00021409    0.00020923
     atom   58 type  1   force =    -0.00010427   -0.00035635   -0.00027774
     atom   59 type  1   force =    -0.00002693    0.00011237    0.00003475
     atom   60 type  1   force =     0.00006320    0.00007482   -0.00026466
     atom   61 type  2   force =    -0.00006400    0.00019480    0.00002321
     atom   62 type  2   force =    -0.00002209   -0.00007796    0.00016057
     atom   63 type  2   force =     0.00011236   -0.00005122    0.00022070
     atom   64 type  1   force =    -0.00010423    0.00013397   -0.00049026
     atom   65 type  1   force =    -0.00016797    0.00000955   -0.00045271
     atom   66 type  1   force =     0.00002644    0.00022692   -0.00007183
     atom   67 type  1   force =    -0.00010953    0.00001165    0.00007159
     atom   68 type  1   force =    -0.00003462    0.00010823    0.00029935
     atom   69 type  1   force =     0.00029478    0.00000265    0.00016787
     atom   70 type  2   force =     0.00003745   -0.00011818    0.00024016
     atom   71 type  2   force =     0.00002257    0.00018758    0.00031415
     atom   72 type  2   force =     0.00005459    0.00019637    0.00035766
     atom   73 type  3   force =    -0.00046998   -0.00009346    0.00052916
     atom   74 type  4   force =    -0.00051362    0.00084476    0.00008644
     atom   75 type  4   force =     0.00070418   -0.00045800    0.00017612
     atom   76 type  4   force =     0.00027852   -0.00018071   -0.00068900
     atom   77 type  4   force =     0.00028996    0.00030299   -0.00023226

     Total force =     0.003067     Total SCF correction =     0.000040
     Energy error            =      2.3E-05 Ry
     Gradient error          =      8.4E-04 Ry/Bohr

     bfgs converged in  38 scf cycles and  37 bfgs steps
     (criteria: energy <  1.0E-04 Ry, force <  1.0E-03 Ry/Bohr)

     End of BFGS Geometry Optimization

     Final energy             =  -12616.4662303120 Ry

     File tmp/CH4-H22_Rot90_hollow_/CH4-H22_Rot90_hollow_.bfgs deleted, as requested
Begin final coordinates

ATOMIC_POSITIONS (angstrom)
Cr              -1.5998467860        2.7171712773        8.1501638131
Cr               3.1903429517       -0.0493791459        8.1515018462
Cr               0.7754013233        1.3023159359        8.1512122245
Cr               1.6274745498        2.7744548959        6.0233371671
Cr              -0.7478911910        1.2454143110        6.0206621768
Cr               1.4894585149       -0.0460114826        6.0213496609
N               -0.0011156685       -0.0450079260        4.9778192265
N                2.3732262734        1.3235378229        7.0109195521
N               -0.0032712230        2.6965048400        7.0081004013
Cr              -1.6472381777        2.8024568629       12.4239600693
Cr               3.2887982830       -0.0462007986       12.4230396485
Cr               0.7260988563        1.2122839646       12.4216503013
Cr               1.5919883354        2.7148255872       10.3424397656
Cr              -0.7857418445        1.3029094896       10.3438404224
Cr               1.5582578446       -0.0523208676       10.3430171072
N               -0.0046451857       -0.0496104726        9.2336020517
N                2.3707344458        1.3213050668       11.4589192879
N               -0.0028097222        2.6923332640       11.4618003022
Cr              -3.9749061203        6.8319557698        8.1491020771
Cr               0.8140706787        4.0689826868        8.1483504443
Cr              -1.5984095827        5.4179130771        8.1500301091
Cr              -0.7485643742        6.8912550004        6.0196341968
Cr              -3.1245277513        5.3592848828        6.0199702744
Cr              -0.8888225457        4.0676657494        6.0215033813
N               -2.3796528312        4.0674284620        4.9775402017
N               -0.0027227856        5.4400170726        7.0054632382
N               -2.3784336909        6.8104821882        7.0059451008
Cr              -4.0246325630        6.9169638295       12.4237343802
Cr               0.9089166392        4.0642644311       12.4197397047
Cr              -1.6489345677        5.3275365086       12.4226158395
Cr              -0.7833357161        6.8297987740       10.3461119347
Cr              -3.1593678670        5.4199088498       10.3455007576
Cr              -0.8157583340        4.0667763813       10.3448735517
N               -2.3778979317        4.0682075635        9.2337876761
N               -0.0017903678        5.4392136766       11.4650493009
N               -2.3776702426        6.8091531162       11.4664777628
Cr               3.1529661044        2.7176023796        8.1506431267
Cr               7.9403685246       -0.0483143815        8.1488419762
Cr               5.5295340703        1.3017335701        8.1512716121
Cr               6.3777095723        2.7761652425        6.0206343377
Cr               4.0031434149        1.2438908293        6.0238090332
Cr               6.2395386490       -0.0466822452        6.0191099154
N                4.7474885312       -0.0458170138        4.9777165905
N                7.1245041428        1.3241491545        7.0055829387
N                4.7496522917        2.6956126306        7.0098808724
Cr               3.1060287999        2.7943332255       12.4182807708
Cr               8.0429108883       -0.0493232633       12.4228619411
Cr               5.4764184176        1.2161092163       12.4228430740
Cr               6.3466264638        2.7136952240       10.3444759497
Cr               3.9681133959        1.3052658890       10.3433709220
Cr               6.3110460265       -0.0491429095       10.3469596672
N                4.7503037836       -0.0489469565        9.2341858835
N                7.1241591845        1.3225827182       11.4667568834
N                4.7508756535        2.6965841949       11.4615853428
Cr               0.7774047442        6.8323211709        8.1490254889
Cr               5.5660534237        4.0688849505        8.1503677721
Cr               3.1515706034        5.4182009270        8.1474855446
Cr               4.0039217913        6.8925594513        6.0199912866
Cr               1.6271799492        5.3580207726        6.0187337192
Cr               3.8646812689        4.0660195395        6.0219181127
N                2.3735759021        4.0642263907        4.9792574539
N                4.7482441193        5.4393920616        7.0056569987
N                2.3723446512        6.8106990739        7.0037031037
Cr               0.7247855466        6.9210858199       12.4231275296
Cr               5.6700471213        4.0657838668       12.4229922258
Cr               3.1039899486        5.3300457959       12.4280261702
Cr               3.9673980416        6.8271596197       10.3459285429
Cr               1.5929529606        5.4196204234       10.3456667983
Cr               3.9340647377        4.0680530286       10.3447401597
N                2.3728843095        4.0689155654        9.2319041288
N                4.7483667800        5.4364943582       11.4670045784
N                2.3729107126        6.8075472503       11.4680607534
C                2.4150720252        4.8083742522       16.2987785360
H                1.4904631418        5.2397665241       16.6972825326
H                2.6843639858        3.9170419962       16.8759017968
H                2.2557894748        4.5228752750       15.2489881656
H                3.2232452300        5.5460086973       16.3557703173
End final coordinates



     Writing all to output data dir tmp/CH4-H22_Rot90_hollow_/CH4-H22_Rot90_hollow_.save/ :
     XML data file, charge density, pseudopotentials, collected wavefunctions
 
     init_run     :     18.62s CPU     19.41s WALL (       1 calls)
     electrons    :  65733.31s CPU  67524.23s WALL (      38 calls)
     update_pot   :     46.53s CPU     48.58s WALL (      37 calls)
     forces       :    385.10s CPU    399.38s WALL (      38 calls)
     force_dftd3  :      8.44s CPU      8.91s WALL (      38 calls)

     Called by init_run:
     wfcinit      :     14.34s CPU     14.73s WALL (       1 calls)
     potinit      :      1.02s CPU      1.18s WALL (       1 calls)
     hinit0       :      0.34s CPU      0.39s WALL (       1 calls)

     Called by electrons:
     c_bands      :  54125.07s CPU  55272.85s WALL (    1651 calls)
     sum_band     :   9137.05s CPU   9470.76s WALL (    1651 calls)
     v_of_rho     :    964.77s CPU   1032.84s WALL (    1685 calls)
     newd         :    722.09s CPU    936.62s WALL (    1685 calls)
     PAW_pot      :    599.02s CPU    606.40s WALL (    1722 calls)
     mix_rho      :    136.76s CPU    146.99s WALL (    1651 calls)
     energy_dftd3 :      4.36s CPU      4.41s WALL (      38 calls)

     Called by c_bands:
     init_us_2    :    949.66s CPU    962.52s WALL (   10134 calls)
     cegterg      :  50670.85s CPU  51787.03s WALL (    4953 calls)

     Called by *egterg:
     cdiaghg      :   1795.15s CPU   1815.75s WALL (   17448 calls)
     h_psi        :  24767.99s CPU  25259.78s WALL (   17574 calls)
     s_psi        :   5821.11s CPU   5881.88s WALL (   17574 calls)
     g_psi        :    110.07s CPU    111.55s WALL (   12618 calls)

     Called by h_psi:
     h_psi:calbec :   5831.57s CPU   5895.09s WALL (   17574 calls)
     vloc_psi     :  12877.74s CPU  13097.77s WALL (   17574 calls)
                                        0.00s GPU  (   17574 calls)
     add_vuspsi   :   5853.05s CPU   5916.06s WALL (   17574 calls)

     General routines
     calbec       :   8852.20s CPU   8946.14s WALL (   23094 calls)
     fft          :    767.05s CPU    828.55s WALL (   22288 calls)
     ffts         :      9.54s CPU     11.00s WALL (    3336 calls)
     fftw         :  12643.94s CPU  12849.95s WALL (12465080 calls)
     interpolate  :     55.79s CPU     61.93s WALL (    1685 calls)
 
     Parallel routines
 
     PWSCF        :     18h24m CPU     18h55m WALL

 
   This run was terminated on:  21:23:59   4Jun2026            

=------------------------------------------------------------------------------=
   JOB DONE.
=------------------------------------------------------------------------------=
