
     Program PWSCF v.7.5 starts on  3Jun2026 at 13:27: 9 

     This program is part of the open-source Quantum ESPRESSO suite
     for quantum simulation of materials; please cite
         "P. Giannozzi et al., J. Phys.:Condens. Matter 21 395502 (2009);
         "P. Giannozzi et al., J. Phys.:Condens. Matter 29 465901 (2017);
         "P. Giannozzi et al., J. Chem. Phys. 152 154105 (2020);
          URL http://www.quantum-espresso.org", 
     in publications or presentations arising from this work. More details at
     http://www.quantum-espresso.org/quote

     Parallel version (MPI & OpenMP), running on      64 processor cores
     Number of MPI processes:                64
     Threads/MPI process:                     1

     MPI processes distributed on     1 nodes
     198031 MiB available memory on the printing compute node when the environment starts
 
     Reading input from generated_inputs/adsorcion/pw-CH4-H22_Rot45_bridge_.in
Warning: card &CELL ignored

     Current dimensions of program PWSCF are:
     Max number of different atomic species (ntypx) = 10
     Max number of k-points (npk) =  40000
     Max angular momentum in pseudopotentials (lmaxx) =  4
     file Cr.pbe-spn-kjpaw_psl.1.0.0.UPF: wavefunction(s)  3S 3P 3D renormalized
     file N.pbe-n-kjpaw_psl.1.0.0.UPF: wavefunction(s)  2S renormalized
     file C.pbe-n-kjpaw_psl.1.0.0.UPF: wavefunction(s)  2S 2P renormalized
     file H.pbe-kjpaw_psl.1.0.0.UPF: wavefunction(s)  1S renormalized
 
     K-points division:     npool     =       4
     R & G space division:  proc/nbgrp/npool/nimage =      16
     Subspace diagonalization in iterative solution of the eigenvalue problem:
     one sub-group per band group will be used
     scalapack distributed-memory algorithm (size of sub-group:  4*  4 procs)

 
     Parallelization info
     --------------------
     sticks:   dense  smooth     PW     G-vecs:    dense   smooth      PW
     Min        1166     388    102               281408    54158    7274
     Max        1167     389    103               281417    54165    7281
     Sum       18661    6217   1639              4502593   866593  116429
 
     Using Slab Decomposition
 


     bravais-lattice index     =            0
     lattice parameter (alat)  =      17.9576  a.u.
     unit-cell volume          =   10952.5767 (a.u.)^3
     number of atoms/cell      =           77
     number of atomic types    =            4
     number of electrons       =       800.00
     number of Kohn-Sham states=          480
     kinetic-energy cutoff     =      70.0000  Ry
     charge density cutoff     =     840.0000  Ry
     scf convergence threshold =      1.0E-08
     mixing beta               =       0.2000
     number of iterations used =            8  plain     mixing
     energy convergence thresh.=      1.0E-04
     force convergence thresh. =      1.0E-03
     Exchange-correlation= SLA  PW   PBX  PBC
                           (   1   4   3   4   0   0   0)
     nstep                     =          200


     celldm(1)=  17.957575  celldm(2)=   0.000000  celldm(3)=   0.000000
     celldm(4)=   0.000000  celldm(5)=   0.000000  celldm(6)=   0.000000

     crystal axes: (cart. coord. in units of alat)
               a(1) = (   1.000000   0.000000   0.000000 )  
               a(2) = (  -0.500000   0.866025   0.000000 )  
               a(3) = (   0.000000   0.000000   2.183951 )  

     reciprocal axes: (cart. coord. in units 2 pi/alat)
               b(1) = (  1.000000  0.577351  0.000000 )  
               b(2) = (  0.000000  1.154701  0.000000 )  
               b(3) = (  0.000000  0.000000  0.457886 )  


     PseudoPot. # 1 for Cr read from file:
     pseudo/Cr.pbe-spn-kjpaw_psl.1.0.0.UPF
     MD5 check sum: 198f1a2427a48552563eee314eba32ba
     Pseudo is Projector augmented-wave + core cor, Zval = 14.0
     Generated using &quot;atomic&quot; code by A. Dal Corso  v.6.3
     Shape of augmentation charge: PSQ
     Using radial grid of 1183 points,  6 beta functions with: 
                l(1) =   0
                l(2) =   0
                l(3) =   1
                l(4) =   1
                l(5) =   2
                l(6) =   2
     Q(r) pseudized with 0 coefficients 


     PseudoPot. # 2 for N  read from file:
     pseudo/N.pbe-n-kjpaw_psl.1.0.0.UPF
     MD5 check sum: 14c48229446f9f2d411169a3abcbc3fa
     Pseudo is Projector augmented-wave + core cor, Zval =  5.0
     Generated using &quot;atomic&quot; code by A. Dal Corso  v.6.3
     Shape of augmentation charge: PSQ
     Using radial grid of 1085 points,  4 beta functions with: 
                l(1) =   0
                l(2) =   0
                l(3) =   1
                l(4) =   1
     Q(r) pseudized with 0 coefficients 


     PseudoPot. # 3 for C  read from file:
     pseudo/C.pbe-n-kjpaw_psl.1.0.0.UPF
     MD5 check sum: 5f16ad9a65e90284d1d834d4ab3b0f7d
     Pseudo is Projector augmented-wave + core cor, Zval =  4.0
     Generated using &quot;atomic&quot; code by A. Dal Corso  v.6.3
     Shape of augmentation charge: PSQ
     Using radial grid of 1073 points,  4 beta functions with: 
                l(1) =   0
                l(2) =   0
                l(3) =   1
                l(4) =   1
     Q(r) pseudized with 0 coefficients 


     PseudoPot. # 4 for H  read from file:
     pseudo/H.pbe-kjpaw_psl.1.0.0.UPF
     MD5 check sum: d81a744832360e4a8af0b0b5b123bc2a
     Pseudo is Projector augmented-wave, Zval =  1.0
     Generated using &quot;atomic&quot; code by A. Dal Corso  v.6.3MaX
     Shape of augmentation charge: PSQ
     Using radial grid of  929 points,  2 beta functions with: 
                l(1) =   0
                l(2) =   0
     Q(r) pseudized with 0 coefficients 


     atomic species   valence    mass     pseudopotential
     Cr               14.00    51.99610     Cr( 1.00)
     N                 5.00    14.00670     N ( 1.00)
     C                 4.00    12.01100     C ( 1.00)
     H                 1.00     1.00800     H ( 1.00)

     No symmetry found



   Cartesian axes

     site n.     atom                  positions (alat units)
         1        Cr     tau(   1) = (  -0.1681591   0.2912601   0.8673998  )
         2        Cr     tau(   2) = (   0.3363182   0.0000000   0.8673998  )
         3        Cr     tau(   3) = (   0.0818405   0.1417518   0.8673993  )
         4        Cr     tau(   4) = (   0.1684970   0.2918454   0.6425759  )
         5        Cr     tau(   5) = (  -0.0815030   0.1411673   0.6425759  )
         6        Cr     tau(   6) = (   0.1630059   0.0000000   0.6425759  )
         7        N      tau(   7) = (   0.0000000   0.0000000   0.5261641  )
         8        N      tau(   8) = (   0.2500000   0.1443376   0.7485579  )
         9        N      tau(   9) = (   0.0000000   0.2886752   0.7485579  )
        10        Cr     tau(  10) = (  -0.1730001   0.2996450   1.3148727  )
        11        Cr     tau(  11) = (   0.3460003   0.0000000   1.3148727  )
        12        Cr     tau(  12) = (   0.0770029   0.1333729   1.3148745  )
        13        Cr     tau(  13) = (   0.1677092   0.2904808   1.0968932  )
        14        Cr     tau(  14) = (  -0.0822901   0.1425306   1.0968938  )
        15        Cr     tau(  15) = (   0.1645802   0.0000000   1.0968938  )
        16        N      tau(  16) = (   0.0000000   0.0000000   0.9808490  )
        17        N      tau(  17) = (   0.2500004   0.1443372   1.2145625  )
        18        N      tau(  18) = (  -0.0000005   0.2886753   1.2145625  )
        19        Cr     tau(  19) = (  -0.4181595   0.7242736   0.8673993  )
        20        Cr     tau(  20) = (   0.0863184   0.4330126   0.8674001  )
        21        Cr     tau(  21) = (  -0.1681593   0.5747652   0.8674001  )
        22        Cr     tau(  22) = (  -0.0815030   0.7248581   0.6425759  )
        23        Cr     tau(  23) = (  -0.3315030   0.5741800   0.6425759  )
        24        Cr     tau(  24) = (  -0.0869941   0.4330127   0.6425759  )
        25        N      tau(  25) = (  -0.2500000   0.4330127   0.5261641  )
        26        N      tau(  26) = (   0.0000000   0.5773503   0.7485581  )
        27        N      tau(  27) = (  -0.2500000   0.7216878   0.7485579  )
        28        Cr     tau(  28) = (  -0.4229971   0.7326525   1.3148745  )
        29        Cr     tau(  29) = (   0.0959968   0.4330121   1.3148749  )
        30        Cr     tau(  30) = (  -0.1729989   0.5663837   1.3148749  )
        31        Cr     tau(  31) = (  -0.0822898   0.7234940   1.0968932  )
        32        Cr     tau(  32) = (  -0.3322908   0.5755446   1.0968932  )
        33        Cr     tau(  33) = (  -0.0854193   0.4330133   1.0968932  )
        34        N      tau(  34) = (  -0.2500001   0.4330128   0.9808490  )
        35        N      tau(  35) = (   0.0000000   0.5773503   1.2145635  )
        36        N      tau(  36) = (  -0.2499996   0.7216882   1.2145625  )
        37        Cr     tau(  37) = (   0.3318407   0.2912602   0.8674001  )
        38        Cr     tau(  38) = (   0.8363191   0.0000000   0.8673993  )
        39        Cr     tau(  39) = (   0.5818409   0.1417524   0.8674001  )
        40        Cr     tau(  40) = (   0.6684970   0.2918454   0.6425759  )
        41        Cr     tau(  41) = (   0.4184970   0.1411673   0.6425759  )
        42        Cr     tau(  42) = (   0.6630059   0.0000000   0.6425759  )
        43        N      tau(  43) = (   0.5000000   0.0000000   0.5261641  )
        44        N      tau(  44) = (   0.7500000   0.1443376   0.7485579  )
        45        N      tau(  45) = (   0.5000000   0.2886751   0.7485581  )
        46        Cr     tau(  46) = (   0.3270011   0.2996417   1.3148749  )
        47        Cr     tau(  47) = (   0.8459942   0.0000000   1.3148745  )
        48        Cr     tau(  48) = (   0.5770021   0.1333704   1.3148749  )
        49        Cr     tau(  49) = (   0.6677091   0.2904819   1.0968932  )
        50        Cr     tau(  50) = (   0.4177102   0.1425314   1.0968932  )
        51        Cr     tau(  51) = (   0.6645817   0.0000000   1.0968932  )
        52        N      tau(  52) = (   0.5000001   0.0000000   0.9808490  )
        53        N      tau(  53) = (   0.7500001   0.1443381   1.2145625  )
        54        N      tau(  54) = (   0.5000000   0.2886751   1.2145635  )
        55        Cr     tau(  55) = (   0.0818409   0.7242730   0.8674001  )
        56        Cr     tau(  56) = (   0.5863184   0.4330128   0.8674001  )
        57        Cr     tau(  57) = (   0.3318409   0.5747653   0.8673998  )
        58        Cr     tau(  58) = (   0.4184970   0.7248581   0.6425759  )
        59        Cr     tau(  59) = (   0.1684970   0.5741800   0.6425759  )
        60        Cr     tau(  60) = (   0.4130059   0.4330127   0.6425759  )
        61        N      tau(  61) = (   0.2500000   0.4330127   0.5261641  )
        62        N      tau(  62) = (   0.5000000   0.5773502   0.7485579  )
        63        N      tau(  63) = (   0.2500000   0.7216878   0.7485579  )
        64        Cr     tau(  64) = (   0.0770021   0.7326550   1.3148749  )
        65        Cr     tau(  65) = (   0.5959968   0.4330133   1.3148749  )
        66        Cr     tau(  66) = (   0.3269999   0.5663804   1.3148727  )
        67        Cr     tau(  67) = (   0.4177099   0.7234948   1.0968938  )
        68        Cr     tau(  68) = (   0.1677091   0.5755435   1.0968932  )
        69        Cr     tau(  69) = (   0.4145807   0.4330121   1.0968932  )
        70        N      tau(  70) = (   0.2499999   0.4330126   0.9808490  )
        71        N      tau(  71) = (   0.4999995   0.5773501   1.2145625  )
        72        N      tau(  72) = (   0.2500001   0.7216873   1.2145625  )
        73        C      tau(  73) = (   0.2114989   0.3663269   1.5915635  )
        74        H      tau(  74) = (   0.2114989   0.4599804   1.6577865  )
        75        H      tau(  75) = (   0.2114989   0.2726734   1.6577865  )
        76        H      tau(  76) = (   0.1178455   0.3663269   1.5253405  )
        77        H      tau(  77) = (   0.3051524   0.3663269   1.5253405  )

     --------------------------------------------
     DFT-D3 Dispersion Correction (3-body terms):
     --------------------------------------------
       Reference C6 values for interpolation: 

         atom   Coordination number   C6
         H          0.912             6.05
         H          0.000            15.18
         C          0.000            98.23
         C          0.987            86.49
         C          1.998            58.72
         C          2.999            51.56
         C          3.984            36.41
         N          0.000            50.54
         N          0.994            44.25
         N          2.014            39.35
         N          2.990            31.16
         Cr         0.000          1381.48
         Cr         1.827           571.38
         Cr        10.619           306.69

       Values used:

         atom   Coordination number  R0_AB[au]  C6      C8
         Cr        12.627            3.252    306.69  28303.74
         Cr        12.627            3.252    306.69  28303.74
         Cr        12.627            3.252    306.69  28303.74
         Cr        10.143            3.252    306.69  28303.74
         Cr        10.143            3.252    306.69  28303.74
         Cr        10.143            3.252    306.69  28303.74
         N          3.022            2.478     31.29    690.36
         N          6.023            2.478     31.16    687.49
         N          6.023            2.478     31.16    687.49
         Cr         9.072            3.252    306.69  28303.74
         Cr         9.072            3.252    306.69  28303.74
         Cr         9.079            3.252    306.69  28303.74
         Cr        12.748            3.252    306.69  28303.74
         Cr        12.748            3.252    306.69  28303.74
         Cr        12.748            3.252    306.69  28303.74
         N          6.047            2.478     31.16    687.49
         N          6.032            2.478     31.16    687.49
         N          6.032            2.478     31.16    687.49
         Cr        12.627            3.252    306.69  28303.74
         Cr        12.627            3.252    306.69  28303.74
         Cr        12.627            3.252    306.69  28303.74
         Cr        10.143            3.252    306.69  28303.74
         Cr        10.143            3.252    306.69  28303.74
         Cr        10.143            3.252    306.69  28303.74
         N          3.022            2.478     31.29    690.36
         N          6.023            2.478     31.16    687.49
         N          6.023            2.478     31.16    687.49
         Cr         9.071            3.252    306.69  28303.74
         Cr         9.317            3.252    306.69  28303.74
         Cr         9.071            3.252    306.69  28303.74
         Cr        12.748            3.252    306.69  28303.74
         Cr        12.748            3.252    306.69  28303.74
         Cr        12.748            3.252    306.69  28303.74
         N          6.047            2.478     31.16    687.49
         N          6.032            2.478     31.16    687.49
         N          6.032            2.478     31.16    687.49
         Cr        12.627            3.252    306.69  28303.74
         Cr        12.627            3.252    306.69  28303.74
         Cr        12.627            3.252    306.69  28303.74
         Cr        10.143            3.252    306.69  28303.74
         Cr        10.143            3.252    306.69  28303.74
         Cr        10.143            3.252    306.69  28303.74
         N          3.022            2.478     31.29    690.36
         N          6.023            2.478     31.16    687.49
         N          6.023            2.478     31.16    687.49
         Cr         9.317            3.252    306.69  28303.74
         Cr         9.071            3.252    306.69  28303.74
         Cr         9.071            3.252    306.69  28303.74
         Cr        12.748            3.252    306.69  28303.74
         Cr        12.748            3.252    306.69  28303.74
         Cr        12.748            3.252    306.69  28303.74
         N          6.047            2.478     31.16    687.49
         N          6.032            2.478     31.16    687.49
         N          6.032            2.478     31.16    687.49
         Cr        12.627            3.252    306.69  28303.74
         Cr        12.627            3.252    306.69  28303.74
         Cr        12.627            3.252    306.69  28303.74
         Cr        10.143            3.252    306.69  28303.74
         Cr        10.143            3.252    306.69  28303.74
         Cr        10.143            3.252    306.69  28303.74
         N          3.022            2.478     31.29    690.36
         N          6.023            2.478     31.16    687.49
         N          6.023            2.478     31.16    687.49
         Cr         9.072            3.252    306.69  28303.74
         Cr         9.072            3.252    306.69  28303.74
         Cr         9.089            3.252    306.69  28303.74
         Cr        12.748            3.252    306.69  28303.74
         Cr        12.748            3.252    306.69  28303.74
         Cr        12.748            3.252    306.69  28303.74
         N          6.047            2.478     31.16    687.49
         N          6.032            2.478     31.16    687.49
         N          6.032            2.478     31.16    687.49
         C          4.153            2.750     36.49   1055.22
         H          0.998            2.062      6.18     74.75
         H          0.997            2.062      6.18     74.75
         H          1.169            2.062      6.09     73.63
         H          1.172            2.062      6.09     73.62

         Molecular C6 ( Ry / a.u.^6 ) =    974414.36


     number of k points=    10  Methfessel-Paxton smearing, width (Ry)=  0.0200
                       cart. coord. in units 2pi/alat
        k(    1) = (   0.0000000   0.0000000   0.0000000), wk =   0.1250000
        k(    2) = (   0.0000000   0.2886753   0.0000000), wk =   0.2500000
        k(    3) = (   0.0000000  -0.5773505   0.0000000), wk =   0.1250000
        k(    4) = (   0.2500000   0.4330129   0.0000000), wk =   0.2500000
        k(    5) = (  -0.2500000   0.1443376   0.0000000), wk =   0.2500000
        k(    6) = (   0.2500000   0.1443376   0.0000000), wk =   0.2500000
        k(    7) = (   0.5000000  -0.2886753   0.0000000), wk =   0.1250000
        k(    8) = (  -0.5000000  -0.2886753   0.0000000), wk =   0.1250000
        k(    9) = (  -0.2500000   0.4330129   0.0000000), wk =   0.2500000
        k(   10) = (   0.5000000  -0.0000000   0.0000000), wk =   0.2500000

     Dense  grid:  4502593 G-vectors     FFT dimensions: ( 180, 180, 375)

     Smooth grid:   866593 G-vectors     FFT dimensions: (  96,  96, 216)

     Estimated max dynamical RAM per process >     867.27 MB

     Estimated total dynamical RAM >      50.98 GB

     Initial potential from superposition of free atoms

     starting charge     799.9627, renormalised to     800.0000

     negative rho (up, down):  3.831E-04 0.000E+00
     Starting wfcs are  584 randomized atomic wfcs
     Checking if some PAW data can be deallocated... 

     total cpu time spent up to now is       19.8 secs

     Self-consistent Calculation

     iteration #  1     ecut=    70.00 Ry     beta= 0.20
     Davidson diagonalization with overlap
     ethr =  1.00E-02,  avg # of iterations =  2.7

     negative rho (up, down):  1.515E-04 0.000E+00

     total cpu time spent up to now is       64.9 secs

     total energy              =  -12610.63905625 Ry
     estimated scf accuracy    <      29.14236845 Ry

     iteration #  2     ecut=    70.00 Ry     beta= 0.20
     Davidson diagonalization with overlap
     ethr =  3.64E-03,  avg # of iterations =  6.6

     negative rho (up, down):  4.540E-04 0.000E+00

     total cpu time spent up to now is      119.1 secs

     total energy              =  -12600.24535276 Ry
     estimated scf accuracy    <     669.95489538 Ry

     iteration #  3     ecut=    70.00 Ry     beta= 0.20
     Davidson diagonalization with overlap
     ethr =  3.64E-03,  avg # of iterations =  3.0

     negative rho (up, down):  6.655E-04 0.000E+00

     total cpu time spent up to now is      159.9 secs

     total energy              =  -12608.83954897 Ry
     estimated scf accuracy    <     489.98240232 Ry

     iteration #  4     ecut=    70.00 Ry     beta= 0.20
     Davidson diagonalization with overlap
     ethr =  3.64E-03,  avg # of iterations =  1.9

     negative rho (up, down):  3.163E-04 0.000E+00

     total cpu time spent up to now is      199.2 secs

     total energy              =  -12614.89710687 Ry
     estimated scf accuracy    <      84.82967613 Ry

     iteration #  5     ecut=    70.00 Ry     beta= 0.20
     Davidson diagonalization with overlap
     ethr =  3.64E-03,  avg # of iterations =  1.1

     negative rho (up, down):  4.113E-04 0.000E+00

     total cpu time spent up to now is      234.9 secs

     total energy              =  -12615.47244691 Ry
     estimated scf accuracy    <      18.83349830 Ry

     iteration #  6     ecut=    70.00 Ry     beta= 0.20
     Davidson diagonalization with overlap
     ethr =  2.35E-03,  avg # of iterations =  1.3

     negative rho (up, down):  4.837E-04 0.000E+00

     total cpu time spent up to now is      272.0 secs

     total energy              =  -12616.18606283 Ry
     estimated scf accuracy    <       3.46605343 Ry

     iteration #  7     ecut=    70.00 Ry     beta= 0.20
     Davidson diagonalization with overlap
     ethr =  4.33E-04,  avg # of iterations = 12.7

     negative rho (up, down):  4.926E-04 0.000E+00

     total cpu time spent up to now is      322.7 secs

     total energy              =  -12616.34838843 Ry
     estimated scf accuracy    <       1.97229517 Ry

     iteration #  8     ecut=    70.00 Ry     beta= 0.20
     Davidson diagonalization with overlap
     ethr =  2.47E-04,  avg # of iterations =  2.0

     negative rho (up, down):  5.118E-04 0.000E+00

     total cpu time spent up to now is      362.2 secs

     total energy              =  -12616.36873426 Ry
     estimated scf accuracy    <       0.87493035 Ry

     iteration #  9     ecut=    70.00 Ry     beta= 0.20
     Davidson diagonalization with overlap
     ethr =  1.09E-04,  avg # of iterations =  4.1

     negative rho (up, down):  4.174E-04 0.000E+00

     total cpu time spent up to now is      403.8 secs

     total energy              =  -12616.36750309 Ry
     estimated scf accuracy    <       0.59859344 Ry

     iteration # 10     ecut=    70.00 Ry     beta= 0.20
     Davidson diagonalization with overlap
     ethr =  7.48E-05,  avg # of iterations =  2.4

     negative rho (up, down):  3.789E-04 0.000E+00

     total cpu time spent up to now is      443.5 secs

     total energy              =  -12616.36073206 Ry
     estimated scf accuracy    <       0.55468131 Ry

     iteration # 11     ecut=    70.00 Ry     beta= 0.20
     Davidson diagonalization with overlap
     ethr =  6.93E-05,  avg # of iterations =  1.9

     negative rho (up, down):  3.948E-04 0.000E+00

     total cpu time spent up to now is      483.1 secs

     total energy              =  -12616.37549062 Ry
     estimated scf accuracy    <       0.22096729 Ry

     iteration # 12     ecut=    70.00 Ry     beta= 0.20
     Davidson diagonalization with overlap
     c_bands:  1 eigenvalues not converged
     ethr =  2.76E-05,  avg # of iterations = 13.7

     negative rho (up, down):  2.807E-04 0.000E+00

     total cpu time spent up to now is      538.4 secs

     total energy              =  -12616.36997073 Ry
     estimated scf accuracy    <       0.59869146 Ry

     iteration # 13     ecut=    70.00 Ry     beta= 0.20
     Davidson diagonalization with overlap
     ethr =  2.76E-05,  avg # of iterations =  1.2

     negative rho (up, down):  2.457E-04 0.000E+00

     total cpu time spent up to now is      575.3 secs

     total energy              =  -12616.37897552 Ry
     estimated scf accuracy    <       0.13069518 Ry

     iteration # 14     ecut=    70.00 Ry     beta= 0.20
     Davidson diagonalization with overlap
     ethr =  1.63E-05,  avg # of iterations =  1.1

     negative rho (up, down):  2.130E-04 0.000E+00

     total cpu time spent up to now is      611.0 secs

     total energy              =  -12616.37990764 Ry
     estimated scf accuracy    <       0.06092017 Ry

     iteration # 15     ecut=    70.00 Ry     beta= 0.20
     Davidson diagonalization with overlap
     ethr =  7.62E-06,  avg # of iterations =  2.8

     negative rho (up, down):  1.986E-04 0.000E+00

     total cpu time spent up to now is      651.5 secs

     total energy              =  -12616.37840404 Ry
     estimated scf accuracy    <       0.26419020 Ry

     iteration # 16     ecut=    70.00 Ry     beta= 0.20
     Davidson diagonalization with overlap
     ethr =  7.62E-06,  avg # of iterations =  1.0

     negative rho (up, down):  1.947E-04 0.000E+00

     total cpu time spent up to now is      686.2 secs

     total energy              =  -12616.38195236 Ry
     estimated scf accuracy    <       0.02515150 Ry

     iteration # 17     ecut=    70.00 Ry     beta= 0.20
     Davidson diagonalization with overlap
     ethr =  3.14E-06,  avg # of iterations =  3.4

     negative rho (up, down):  1.965E-04 0.000E+00

     total cpu time spent up to now is      727.6 secs

     total energy              =  -12616.38189999 Ry
     estimated scf accuracy    <       0.03467749 Ry

     iteration # 18     ecut=    70.00 Ry     beta= 0.20
     Davidson diagonalization with overlap
     ethr =  3.14E-06,  avg # of iterations =  2.0

     negative rho (up, down):  1.986E-04 0.000E+00

     total cpu time spent up to now is      767.0 secs

     total energy              =  -12616.38231879 Ry
     estimated scf accuracy    <       0.03763183 Ry

     iteration # 19     ecut=    70.00 Ry     beta= 0.20
     Davidson diagonalization with overlap
     ethr =  3.14E-06,  avg # of iterations =  1.2

     negative rho (up, down):  1.999E-04 0.000E+00

     total cpu time spent up to now is      804.1 secs

     total energy              =  -12616.38318074 Ry
     estimated scf accuracy    <       0.00858600 Ry

     iteration # 20     ecut=    70.00 Ry     beta= 0.20
     Davidson diagonalization with overlap
     ethr =  1.07E-06,  avg # of iterations =  1.4

     negative rho (up, down):  2.023E-04 0.000E+00

     total cpu time spent up to now is      842.4 secs

     total energy              =  -12616.38333119 Ry
     estimated scf accuracy    <       0.00663348 Ry

     iteration # 21     ecut=    70.00 Ry     beta= 0.20
     Davidson diagonalization with overlap
     ethr =  8.29E-07,  avg # of iterations =  1.2

     negative rho (up, down):  2.059E-04 0.000E+00

     total cpu time spent up to now is      879.1 secs

     total energy              =  -12616.38356042 Ry
     estimated scf accuracy    <       0.00252698 Ry

     iteration # 22     ecut=    70.00 Ry     beta= 0.20
     Davidson diagonalization with overlap
     ethr =  3.16E-07,  avg # of iterations =  2.0

     negative rho (up, down):  2.077E-04 0.000E+00

     total cpu time spent up to now is      918.6 secs

     total energy              =  -12616.38361337 Ry
     estimated scf accuracy    <       0.00272402 Ry

     iteration # 23     ecut=    70.00 Ry     beta= 0.20
     Davidson diagonalization with overlap
     ethr =  3.16E-07,  avg # of iterations =  1.0

     negative rho (up, down):  2.124E-04 0.000E+00

     total cpu time spent up to now is      953.3 secs

     total energy              =  -12616.38368946 Ry
     estimated scf accuracy    <       0.00180594 Ry

     iteration # 24     ecut=    70.00 Ry     beta= 0.20
     Davidson diagonalization with overlap
     ethr =  2.26E-07,  avg # of iterations =  1.2

     negative rho (up, down):  2.115E-04 0.000E+00

     total cpu time spent up to now is      989.9 secs

     total energy              =  -12616.38373907 Ry
     estimated scf accuracy    <       0.00058395 Ry

     iteration # 25     ecut=    70.00 Ry     beta= 0.20
     Davidson diagonalization with overlap
     ethr =  7.30E-08,  avg # of iterations =  3.0

     negative rho (up, down):  2.117E-04 0.000E+00

     total cpu time spent up to now is     1030.3 secs

     total energy              =  -12616.38369630 Ry
     estimated scf accuracy    <       0.00414301 Ry

     iteration # 26     ecut=    70.00 Ry     beta= 0.20
     Davidson diagonalization with overlap
     ethr =  7.30E-08,  avg # of iterations =  1.6

     negative rho (up, down):  2.125E-04 0.000E+00

     total cpu time spent up to now is     1068.7 secs

     total energy              =  -12616.38374189 Ry
     estimated scf accuracy    <       0.00221747 Ry

     iteration # 27     ecut=    70.00 Ry     beta= 0.20
     Davidson diagonalization with overlap
     ethr =  7.30E-08,  avg # of iterations =  1.7

     negative rho (up, down):  2.130E-04 0.000E+00

     total cpu time spent up to now is     1107.8 secs

     total energy              =  -12616.38377813 Ry
     estimated scf accuracy    <       0.00031480 Ry

     iteration # 28     ecut=    70.00 Ry     beta= 0.20
     Davidson diagonalization with overlap
     ethr =  3.93E-08,  avg # of iterations =  1.8

     negative rho (up, down):  2.125E-04 0.000E+00

     total cpu time spent up to now is     1146.9 secs

     total energy              =  -12616.38379095 Ry
     estimated scf accuracy    <       0.00009176 Ry

     iteration # 29     ecut=    70.00 Ry     beta= 0.20
     Davidson diagonalization with overlap
     ethr =  1.15E-08,  avg # of iterations =  6.0

     negative rho (up, down):  2.127E-04 0.000E+00

     total cpu time spent up to now is     1189.5 secs

     total energy              =  -12616.38379021 Ry
     estimated scf accuracy    <       0.00019986 Ry

     iteration # 30     ecut=    70.00 Ry     beta= 0.20
     Davidson diagonalization with overlap
     ethr =  1.15E-08,  avg # of iterations =  1.3

     negative rho (up, down):  2.127E-04 0.000E+00

     total cpu time spent up to now is     1226.7 secs

     total energy              =  -12616.38379577 Ry
     estimated scf accuracy    <       0.00004281 Ry

     iteration # 31     ecut=    70.00 Ry     beta= 0.20
     Davidson diagonalization with overlap
     ethr =  5.35E-09,  avg # of iterations =  2.9

     negative rho (up, down):  2.123E-04 0.000E+00

     total cpu time spent up to now is     1267.4 secs

     total energy              =  -12616.38379575 Ry
     estimated scf accuracy    <       0.00004645 Ry

     iteration # 32     ecut=    70.00 Ry     beta= 0.20
     Davidson diagonalization with overlap
     ethr =  5.35E-09,  avg # of iterations =  1.1

     negative rho (up, down):  2.122E-04 0.000E+00

     total cpu time spent up to now is     1303.5 secs

     total energy              =  -12616.38379606 Ry
     estimated scf accuracy    <       0.00002401 Ry

     iteration # 33     ecut=    70.00 Ry     beta= 0.20
     Davidson diagonalization with overlap
     ethr =  3.00E-09,  avg # of iterations =  2.4

     negative rho (up, down):  2.119E-04 0.000E+00

     total cpu time spent up to now is     1343.4 secs

     total energy              =  -12616.38379560 Ry
     estimated scf accuracy    <       0.00001546 Ry

     iteration # 34     ecut=    70.00 Ry     beta= 0.20
     Davidson diagonalization with overlap
     ethr =  1.93E-09,  avg # of iterations =  2.3

     negative rho (up, down):  2.118E-04 0.000E+00

     total cpu time spent up to now is     1383.8 secs

     total energy              =  -12616.38379456 Ry
     estimated scf accuracy    <       0.00005230 Ry

     iteration # 35     ecut=    70.00 Ry     beta= 0.20
     Davidson diagonalization with overlap
     ethr =  1.93E-09,  avg # of iterations =  1.1

     negative rho (up, down):  2.115E-04 0.000E+00

     total cpu time spent up to now is     1419.5 secs

     total energy              =  -12616.38379517 Ry
     estimated scf accuracy    <       0.00001621 Ry

     iteration # 36     ecut=    70.00 Ry     beta= 0.20
     Davidson diagonalization with overlap
     ethr =  1.93E-09,  avg # of iterations =  1.1

     negative rho (up, down):  2.113E-04 0.000E+00

     total cpu time spent up to now is     1455.5 secs

     total energy              =  -12616.38379433 Ry
     estimated scf accuracy    <       0.00006912 Ry

     iteration # 37     ecut=    70.00 Ry     beta= 0.20
     Davidson diagonalization with overlap
     ethr =  1.93E-09,  avg # of iterations =  1.0

     negative rho (up, down):  2.112E-04 0.000E+00

     total cpu time spent up to now is     1490.2 secs

     total energy              =  -12616.38379474 Ry
     estimated scf accuracy    <       0.00002566 Ry

     iteration # 38     ecut=    70.00 Ry     beta= 0.20
     Davidson diagonalization with overlap
     ethr =  1.93E-09,  avg # of iterations =  1.0

     negative rho (up, down):  2.112E-04 0.000E+00

     total cpu time spent up to now is     1524.9 secs

     total energy              =  -12616.38379516 Ry
     estimated scf accuracy    <       0.00000253 Ry

     iteration # 39     ecut=    70.00 Ry     beta= 0.20
     Davidson diagonalization with overlap
     ethr =  3.16E-10,  avg # of iterations =  3.4

     negative rho (up, down):  2.111E-04 0.000E+00

     total cpu time spent up to now is     1565.8 secs

     total energy              =  -12616.38379491 Ry
     estimated scf accuracy    <       0.00001072 Ry

     iteration # 40     ecut=    70.00 Ry     beta= 0.20
     Davidson diagonalization with overlap
     ethr =  3.16E-10,  avg # of iterations =  2.0

     negative rho (up, down):  2.110E-04 0.000E+00

     total cpu time spent up to now is     1605.5 secs

     total energy              =  -12616.38379492 Ry
     estimated scf accuracy    <       0.00000851 Ry

     iteration # 41     ecut=    70.00 Ry     beta= 0.20
     Davidson diagonalization with overlap
     ethr =  3.16E-10,  avg # of iterations =  1.0

     negative rho (up, down):  2.110E-04 0.000E+00

     total cpu time spent up to now is     1640.4 secs

     total energy              =  -12616.38379514 Ry
     estimated scf accuracy    <       0.00000067 Ry

     iteration # 42     ecut=    70.00 Ry     beta= 0.20
     Davidson diagonalization with overlap
     ethr =  8.32E-11,  avg # of iterations =  4.0

     negative rho (up, down):  2.109E-04 0.000E+00

     total cpu time spent up to now is     1682.0 secs

     total energy              =  -12616.38379507 Ry
     estimated scf accuracy    <       0.00000119 Ry

     iteration # 43     ecut=    70.00 Ry     beta= 0.20
     Davidson diagonalization with overlap
     ethr =  8.32E-11,  avg # of iterations =  2.3

     negative rho (up, down):  2.108E-04 0.000E+00

     total cpu time spent up to now is     1721.7 secs

     total energy              =  -12616.38379502 Ry
     estimated scf accuracy    <       0.00000330 Ry

     iteration # 44     ecut=    70.00 Ry     beta= 0.20
     Davidson diagonalization with overlap
     ethr =  8.32E-11,  avg # of iterations =  1.0

     negative rho (up, down):  2.108E-04 0.000E+00

     total cpu time spent up to now is     1756.4 secs

     total energy              =  -12616.38379507 Ry
     estimated scf accuracy    <       0.00000079 Ry

     iteration # 45     ecut=    70.00 Ry     beta= 0.20
     Davidson diagonalization with overlap
     ethr =  8.32E-11,  avg # of iterations =  1.9

     negative rho (up, down):  2.108E-04 0.000E+00

     total cpu time spent up to now is     1795.6 secs

     total energy              =  -12616.38379505 Ry
     estimated scf accuracy    <       0.00000203 Ry

     iteration # 46     ecut=    70.00 Ry     beta= 0.20
     Davidson diagonalization with overlap
     ethr =  8.32E-11,  avg # of iterations =  1.0

     negative rho (up, down):  2.108E-04 0.000E+00

     total cpu time spent up to now is     1830.4 secs

     total energy              =  -12616.38379507 Ry
     estimated scf accuracy    <       0.00000141 Ry

     iteration # 47     ecut=    70.00 Ry     beta= 0.20
     Davidson diagonalization with overlap
     ethr =  8.32E-11,  avg # of iterations =  1.0

     negative rho (up, down):  2.108E-04 0.000E+00

     total cpu time spent up to now is     1865.0 secs

     total energy              =  -12616.38379506 Ry
     estimated scf accuracy    <       0.00000224 Ry

     iteration # 48     ecut=    70.00 Ry     beta= 0.20
     Davidson diagonalization with overlap
     ethr =  8.32E-11,  avg # of iterations =  1.0

     negative rho (up, down):  2.107E-04 0.000E+00

     total cpu time spent up to now is     1899.6 secs

     total energy              =  -12616.38379505 Ry
     estimated scf accuracy    <       0.00000168 Ry

     iteration # 49     ecut=    70.00 Ry     beta= 0.20
     Davidson diagonalization with overlap
     ethr =  8.32E-11,  avg # of iterations =  1.0

     negative rho (up, down):  2.107E-04 0.000E+00

     total cpu time spent up to now is     1934.3 secs

     total energy              =  -12616.38379508 Ry
     estimated scf accuracy    <       0.00000013 Ry

     iteration # 50     ecut=    70.00 Ry     beta= 0.20
     Davidson diagonalization with overlap
     ethr =  1.63E-11,  avg # of iterations =  1.0

     negative rho (up, down):  2.107E-04 0.000E+00

     total cpu time spent up to now is     1968.9 secs

     total energy              =  -12616.38379509 Ry
     estimated scf accuracy    <       0.00000005 Ry

     iteration # 51     ecut=    70.00 Ry     beta= 0.20
     Davidson diagonalization with overlap
     ethr =  5.70E-12,  avg # of iterations =  3.5

     negative rho (up, down):  2.106E-04 0.000E+00

     total cpu time spent up to now is     2009.9 secs

     total energy              =  -12616.38379508 Ry
     estimated scf accuracy    <       0.00000031 Ry

     iteration # 52     ecut=    70.00 Ry     beta= 0.20
     Davidson diagonalization with overlap
     ethr =  5.70E-12,  avg # of iterations =  1.4

     negative rho (up, down):  2.106E-04 0.000E+00

     total cpu time spent up to now is     2048.2 secs

     total energy              =  -12616.38379509 Ry
     estimated scf accuracy    <       0.00000002 Ry

     iteration # 53     ecut=    70.00 Ry     beta= 0.20
     Davidson diagonalization with overlap
     ethr =  2.68E-12,  avg # of iterations =  2.0

     negative rho (up, down):  2.106E-04 0.000E+00

     total cpu time spent up to now is     2087.7 secs

     total energy              =  -12616.38379509 Ry
     estimated scf accuracy    <       0.00000001 Ry

     iteration # 54     ecut=    70.00 Ry     beta= 0.20
     Davidson diagonalization with overlap
     ethr =  1.81E-12,  avg # of iterations =  3.6

     negative rho (up, down):  2.106E-04 0.000E+00

     total cpu time spent up to now is     2128.5 secs

     total energy              =  -12616.38379509 Ry
     estimated scf accuracy    <       0.00000010 Ry

     iteration # 55     ecut=    70.00 Ry     beta= 0.20
     Davidson diagonalization with overlap
     ethr =  1.81E-12,  avg # of iterations =  1.3

     negative rho (up, down):  2.106E-04 0.000E+00

     total cpu time spent up to now is     2165.5 secs

     total energy              =  -12616.38379509 Ry
     estimated scf accuracy    <       0.00000001 Ry

     iteration # 56     ecut=    70.00 Ry     beta= 0.20
     Davidson diagonalization with overlap
     ethr =  1.73E-12,  avg # of iterations =  1.1

     negative rho (up, down):  2.106E-04 0.000E+00

     total cpu time spent up to now is     2201.3 secs

     total energy              =  -12616.38379509 Ry
     estimated scf accuracy    <       0.00000002 Ry

     iteration # 57     ecut=    70.00 Ry     beta= 0.20
     Davidson diagonalization with overlap
     ethr =  1.73E-12,  avg # of iterations =  1.1

     negative rho (up, down):  2.106E-04 0.000E+00

     total cpu time spent up to now is     2237.1 secs

     total energy              =  -12616.38379509 Ry
     estimated scf accuracy    <       0.00000012 Ry

     iteration # 58     ecut=    70.00 Ry     beta= 0.20
     Davidson diagonalization with overlap
     ethr =  1.73E-12,  avg # of iterations =  1.1

     negative rho (up, down):  2.106E-04 0.000E+00

     total cpu time spent up to now is     2272.8 secs

     total energy              =  -12616.38379509 Ry
     estimated scf accuracy    <       0.00000003 Ry

     iteration # 59     ecut=    70.00 Ry     beta= 0.20
     Davidson diagonalization with overlap
     ethr =  1.73E-12,  avg # of iterations =  1.0

     negative rho (up, down):  2.106E-04 0.000E+00

     total cpu time spent up to now is     2307.3 secs

     End of self-consistent calculation

          k = 0.0000 0.0000 0.0000 (108303 PWs)   bands (ev):

   -67.0055 -66.9651 -66.9649 -66.9648 -66.9569 -66.9566 -66.9556 -66.9544
   -66.9312 -66.9304 -66.9301 -66.9278 -66.9272 -66.9263 -66.9227 -66.9221
   -66.9213 -66.9201 -66.9191 -66.9107 -66.9082 -66.9075 -66.9056 -66.9042
   -66.7521 -66.7229 -66.7229 -66.7225 -66.7162 -66.7156 -66.7153 -66.6996
   -66.6989 -66.6984 -66.6926 -66.6925 -66.6639 -66.6376 -66.6268 -66.6252
   -66.6182 -66.6107 -66.5911 -66.5882 -66.5875 -66.5838 -66.5775 -66.5766
   -38.8096 -38.7829 -38.7827 -38.7792 -38.6805 -38.6802 -38.6793 -38.6411
   -38.6405 -38.6248 -38.6246 -38.6230 -38.6007 -38.5704 -38.5697 -38.5655
   -38.5469 -38.5462 -38.5448 -38.5216 -38.5152 -38.5147 -38.4824 -38.4820
   -38.4780 -38.4774 -38.4769 -38.4697 -38.3952 -38.3841 -38.3787 -38.3779
   -38.3764 -38.3729 -38.3727 -38.3717 -38.3690 -38.3689 -38.3329 -38.3324
   -38.3323 -38.3159 -38.3158 -38.3157 -38.2989 -38.2725 -38.2713 -38.2708
   -38.2696 -38.2681 -38.2673 -38.2667 -38.2667 -38.2603 -38.2483 -38.2482
   -38.2434 -38.2425 -38.2385 -38.2357 -38.2350 -38.2348 -38.2341 -38.2322
   -38.2228 -38.2207 -38.2205 -38.2159 -38.2080 -38.2064 -38.2044 -38.1684
   -38.1621 -38.1570 -38.1547 -38.1501 -38.1472 -38.1466 -38.1455 -38.1417
   -38.1320 -38.1223 -38.1212 -38.1178 -38.1036 -38.0997 -38.0992 -38.0957
   -38.0876 -38.0835 -38.0822 -38.0601 -38.0585 -38.0558 -38.0547 -38.0521
   -38.0455 -38.0436 -38.0371 -38.0358 -38.0341 -38.0087 -38.0081 -38.0080
   -37.9752 -37.9739 -37.9672 -37.9668 -37.9659 -37.9587 -37.9551 -37.9510
   -37.9504 -37.9490 -37.9473 -37.9318 -37.9315 -37.9245 -37.9238 -37.9157
   -37.9153 -37.9046 -37.9043 -37.9039 -37.8707 -37.8702 -37.8700 -37.8696
   -37.8687 -37.8685 -37.8404 -37.8403 -37.8338 -37.8198 -37.8125 -37.8116
   -37.7089 -37.7029 -37.6977 -37.6818 -37.6779 -37.6750 -37.6604 -37.6561
   -12.5065 -12.0369 -11.8041 -11.8036 -11.8023 -11.6582 -11.6562 -11.6513
   -11.6319 -11.6313 -11.6280 -11.3499 -11.3484 -11.3448 -11.2718 -11.2399
   -11.2388 -11.2358 -11.0083 -10.9858  -8.7727  -8.7156  -8.7155  -8.7154
    -8.6579  -3.0097  -3.0082  -3.0064  -2.7951  -2.7656  -2.7651  -2.5706
    -2.5704  -2.5700  -2.5605  -2.5455  -2.5429  -2.4786  -2.4238  -2.4108
    -2.4095  -2.3296  -2.3239  -2.3226  -2.2444  -2.2432  -1.7893  -1.7654
    -1.7639  -1.6112  -1.5909  -1.5848  -1.5481  -1.5218  -1.4907  -1.4789
    -1.4404  -1.4312  -1.4156  -1.3901  -1.3442  -1.3427  -1.3394  -1.2988
    -1.2878  -1.2783  -1.2324  -1.2221  -1.2125  -1.0931  -1.0899  -0.9893
    -0.9283  -0.9237  -0.9161  -0.9045  -0.8987  -0.8592  -0.8395  -0.8304
    -0.8280  -0.8247  -0.6908  -0.6854  -0.6785  -0.4416  -0.4386  -0.4382
     0.6519   1.2204   1.2207   1.2209   1.4634   1.4635   1.4635   1.5390
     1.5571   1.5572   1.5781   1.5788   1.5792   1.5999   1.6002   1.6004
     1.7703   1.7747   1.7761   2.0609   2.0617   2.0626   2.1874   2.1879
     2.1907   2.2191   2.3362   2.3464   2.3468   2.4333   2.4339   2.4394
     2.4484   2.4485   2.4495   2.5105   2.5125   2.5130   2.5293   2.6910
     2.6916   2.7925   2.7967   2.7970   3.1513   3.1525   3.1915   3.2827
     3.2828   3.3451   3.3472   3.3475   3.3601   3.3611   3.3658   3.4787
     3.4853   3.4932   3.5200   3.5462   3.5528   3.6410   3.6637   3.6657
     3.6756   3.6897   3.6912   3.7227   3.7234   3.7264   3.7295   3.8201
     3.8225   3.8258   3.9735   3.9878   4.0315   4.1328   4.1334   4.1413
     4.1547   4.1557   4.2836   4.2878   4.3029   4.3059   4.3499   4.3573
     4.3596   4.4139   4.4156   4.4169   4.4300   4.4881   4.4928   4.4941
     4.5468   4.5471   4.6307   4.6985   4.7015   4.7335   4.7388   4.7837
     4.7862   4.8276   4.8356   4.8418   4.8825   4.8913   4.8920   4.9484
     4.9532   4.9672   5.0137   5.0151   5.0634   5.1311   5.1332   5.1433
     5.2124   5.2227   5.3340   5.3897   5.3904   5.3917   5.5002   5.5011
     5.5460   5.5505   5.5543   5.5655   5.5664   5.5695   5.6920   5.6938
     5.6975   5.7058   5.7078   5.7140   5.7258   5.7269   5.7572   5.7619
     5.8032   5.8403   5.8565   5.8617   5.8642   5.8681   5.8685   5.8935
     5.9041   5.9179   5.9842   5.9900   5.9936   6.0081   6.0084   6.0101
     6.0117   6.0277   6.0661   6.0679   6.0682   6.1096   6.1120   6.1267
     6.2012   6.2033   6.2133   6.2150   6.2159   6.2604   6.2609   6.2686
     6.2706   6.2753   6.3150   6.3166   6.3188   6.3608   6.3648   6.3962
     6.5292   6.5700   6.5707   6.5713   6.6277   6.6286   6.6460   6.6616
     6.6676   6.7148   6.7176   6.7185   6.7227   6.7268   6.7655   6.8310

          k = 0.0000 0.2887 0.0000 (108355 PWs)   bands (ev):

   -67.0020 -66.9779 -66.9688 -66.9680 -66.9520 -66.9507 -66.9499 -66.9439
   -66.9355 -66.9335 -66.9330 -66.9302 -66.9290 -66.9284 -66.9226 -66.9215
   -66.9193 -66.9178 -66.9150 -66.9114 -66.9091 -66.9076 -66.9062 -66.9048
   -66.7495 -66.7317 -66.7254 -66.7247 -66.7122 -66.7114 -66.7076 -66.7011
   -66.7003 -66.6980 -66.6941 -66.6936 -66.6630 -66.6379 -66.6298 -66.6262
   -66.6165 -66.6093 -66.5896 -66.5878 -66.5868 -66.5843 -66.5787 -66.5772
   -38.8063 -38.7866 -38.7787 -38.7761 -38.6759 -38.6751 -38.6737 -38.6488
   -38.6395 -38.6314 -38.6309 -38.6278 -38.6022 -38.5867 -38.5734 -38.5698
   -38.5428 -38.5398 -38.5308 -38.5232 -38.5171 -38.5157 -38.5103 -38.4877
   -38.4719 -38.4711 -38.4697 -38.4482 -38.3888 -38.3877 -38.3828 -38.3778
   -38.3749 -38.3686 -38.3676 -38.3665 -38.3617 -38.3542 -38.3379 -38.3344
   -38.3330 -38.3246 -38.3191 -38.3180 -38.2968 -38.2879 -38.2806 -38.2730
   -38.2719 -38.2707 -38.2702 -38.2700 -38.2655 -38.2625 -38.2574 -38.2534
   -38.2508 -38.2498 -38.2442 -38.2382 -38.2378 -38.2325 -38.2239 -38.2204
   -38.2179 -38.2153 -38.2138 -38.2038 -38.1986 -38.1970 -38.1956 -38.1716
   -38.1662 -38.1626 -38.1588 -38.1584 -38.1531 -38.1462 -38.1457 -38.1338
   -38.1326 -38.1268 -38.1257 -38.1114 -38.1085 -38.1032 -38.0987 -38.0905
   -38.0884 -38.0863 -38.0762 -38.0639 -38.0599 -38.0558 -38.0537 -38.0464
   -38.0442 -38.0363 -38.0332 -38.0302 -38.0292 -38.0148 -38.0131 -38.0103
   -37.9791 -37.9750 -37.9725 -37.9646 -37.9644 -37.9622 -37.9530 -37.9505
   -37.9482 -37.9468 -37.9443 -37.9297 -37.9289 -37.9241 -37.9226 -37.9175
   -37.9163 -37.9069 -37.9066 -37.9028 -37.8766 -37.8726 -37.8725 -37.8643
   -37.8632 -37.8606 -37.8505 -37.8428 -37.8314 -37.8197 -37.8135 -37.8125
   -37.7061 -37.7006 -37.6951 -37.6825 -37.6775 -37.6730 -37.6673 -37.6588
   -12.4429 -12.0157 -11.9945 -11.8596 -11.8580 -11.7277 -11.6418 -11.6383
   -11.5663 -11.5638 -11.4854 -11.3407 -11.3374 -11.2908 -11.2720 -11.2698
   -11.2598 -11.2063 -11.0414 -11.0207  -8.7727  -8.7171  -8.7171  -8.7057
    -8.6650  -2.9778  -2.9751  -2.9355  -2.8228  -2.7524  -2.7395  -2.7178
    -2.7109  -2.7092  -2.5964  -2.5921  -2.4465  -2.4045  -2.3635  -2.3524
    -2.3523  -2.2961  -2.2432  -2.2169  -2.2089  -2.1649  -1.9690  -1.7838
    -1.7744  -1.7416  -1.6663  -1.6446  -1.5911  -1.5176  -1.4936  -1.4846
    -1.4559  -1.4256  -1.4090  -1.3874  -1.3610  -1.3455  -1.3251  -1.3125
    -1.2863  -1.2588  -1.2509  -1.2345  -1.1269  -1.0840  -1.0664  -1.0206
    -0.9640  -0.9118  -0.9029  -0.8911  -0.8509  -0.8395  -0.8354  -0.8265
    -0.8083  -0.7805  -0.7236  -0.6579  -0.6542  -0.5108  -0.4667  -0.4647
     0.7732   1.1821   1.2137   1.2141   1.4530   1.4531   1.4629   1.4654
     1.5300   1.5484   1.5491   1.5679   1.6291   1.6683   1.6704   1.6821
     1.7847   1.7875   1.8296   2.0693   2.0705   2.1129   2.1634   2.1662
     2.2185   2.2715   2.3041   2.3077   2.3312   2.4293   2.4316   2.4474
     2.4582   2.4599   2.5219   2.5520   2.5547   2.5722   2.5941   2.6237
     2.7264   2.8052   2.8070   2.8687   3.0226   3.0731   3.1363   3.2052
     3.2072   3.2378   3.2436   3.2705   3.3693   3.3703   3.3955   3.4031
     3.4045   3.4445   3.5215   3.5885   3.6053   3.6154   3.6439   3.6838
     3.7070   3.7168   3.7233   3.7363   3.7803   3.7864   3.7897   3.8708
     3.9868   4.0039   4.0185   4.0319   4.0390   4.0489   4.0643   4.1513
     4.1771   4.1848   4.2469   4.2501   4.2784   4.2985   4.3098   4.3143
     4.3374   4.3637   4.3824   4.3884   4.4093   4.4815   4.4882   4.4999
     4.5007   4.5668   4.5798   4.6652   4.6922   4.7253   4.7486   4.7710
     4.7875   4.7986   4.8417   4.8563   4.8999   4.9360   4.9447   4.9502
     4.9781   4.9854   5.0089   5.0678   5.0821   5.1438   5.1538   5.1884
     5.2001   5.2345   5.2954   5.3131   5.3310   5.3624   5.3883   5.4574
     5.4724   5.4759   5.4769   5.5266   5.5549   5.5631   5.5740   5.5803
     5.5864   5.6881   5.7030   5.7221   5.7491   5.7565   5.7610   5.7681
     5.7954   5.8153   5.8191   5.8386   5.8476   5.8883   5.8949   5.8989
     5.9018   5.9376   5.9556   5.9725   5.9770   5.9861   6.0198   6.0250
     6.0328   6.0450   6.0477   6.0529   6.0669   6.0700   6.1016   6.1830
     6.2077   6.2137   6.2326   6.2543   6.2580   6.2621   6.2634   6.3125
     6.3193   6.3216   6.3270   6.3732   6.4016   6.4101   6.4231   6.4606
     6.4705   6.4786   6.5415   6.5471   6.5577   6.5658   6.6541   6.6620
     6.6748   6.6975   6.7045   6.7269   6.7458   6.7591   6.8054   6.8100

          k = 0.0000-0.5774 0.0000 (108310 PWs)   bands (ev):

   -66.9923 -66.9921 -66.9710 -66.9701 -66.9455 -66.9452 -66.9428 -66.9424
   -66.9391 -66.9384 -66.9322 -66.9309 -66.9302 -66.9297 -66.9258 -66.9255
   -66.9154 -66.9137 -66.9137 -66.9115 -66.9097 -66.9082 -66.9066 -66.9062
   -66.7422 -66.7421 -66.7269 -66.7261 -66.7072 -66.7063 -66.7046 -66.7038
   -66.6996 -66.6988 -66.6960 -66.6958 -66.6621 -66.6382 -66.6324 -66.6269
   -66.6152 -66.6081 -66.5890 -66.5873 -66.5853 -66.5829 -66.5822 -66.5777
   -38.7977 -38.7963 -38.7744 -38.7720 -38.6699 -38.6667 -38.6646 -38.6630
   -38.6410 -38.6376 -38.6348 -38.6334 -38.6013 -38.5998 -38.5757 -38.5719
   -38.5396 -38.5352 -38.5290 -38.5279 -38.5241 -38.5204 -38.5030 -38.5002
   -38.4647 -38.4636 -38.4525 -38.4516 -38.3982 -38.3970 -38.3742 -38.3733
   -38.3676 -38.3671 -38.3588 -38.3582 -38.3477 -38.3461 -38.3360 -38.3351
   -38.3303 -38.3301 -38.3234 -38.3204 -38.3089 -38.3079 -38.2850 -38.2748
   -38.2743 -38.2739 -38.2704 -38.2702 -38.2695 -38.2659 -38.2639 -38.2560
   -38.2522 -38.2511 -38.2506 -38.2420 -38.2404 -38.2393 -38.2188 -38.2166
   -38.2099 -38.1985 -38.1970 -38.1928 -38.1899 -38.1881 -38.1874 -38.1845
   -38.1769 -38.1720 -38.1691 -38.1671 -38.1455 -38.1411 -38.1381 -38.1369
   -38.1340 -38.1335 -38.1210 -38.1197 -38.1124 -38.1064 -38.1011 -38.0915
   -38.0846 -38.0837 -38.0679 -38.0634 -38.0611 -38.0561 -38.0523 -38.0494
   -38.0430 -38.0412 -38.0301 -38.0257 -38.0235 -38.0188 -38.0013 -37.9976
   -37.9887 -37.9859 -37.9756 -37.9732 -37.9630 -37.9621 -37.9530 -37.9462
   -37.9458 -37.9429 -37.9397 -37.9370 -37.9247 -37.9216 -37.9203 -37.9186
   -37.9096 -37.9095 -37.9088 -37.9082 -37.8741 -37.8739 -37.8704 -37.8696
   -37.8603 -37.8591 -37.8503 -37.8502 -37.8289 -37.8182 -37.8158 -37.8136
   -37.7016 -37.6955 -37.6916 -37.6861 -37.6786 -37.6769 -37.6687 -37.6620
   -12.2667 -12.2651 -11.8943 -11.8926 -11.8810 -11.8778 -11.6494 -11.6462
   -11.4784 -11.4763 -11.3530 -11.3517 -11.3413 -11.3366 -11.3155 -11.3144
   -11.1346 -11.1304 -11.1134 -11.1133  -8.7727  -8.7187  -8.7187  -8.6840
    -8.6840  -2.9449  -2.9383  -2.8494  -2.8458  -2.7839  -2.7795  -2.7785
    -2.7754  -2.6541  -2.6532  -2.5376  -2.5356  -2.3794  -2.3711  -2.3124
    -2.3058  -2.2617  -2.2494  -2.1340  -2.1249  -2.0459  -2.0422  -1.8523
    -1.8495  -1.7471  -1.7047  -1.6834  -1.6713  -1.6009  -1.5736  -1.4961
    -1.4664  -1.4497  -1.4452  -1.4013  -1.3524  -1.3158  -1.2910  -1.2689
    -1.2650  -1.2533  -1.2508  -1.1346  -1.1334  -1.0558  -1.0549  -1.0367
    -1.0291  -0.9131  -0.9073  -0.8723  -0.8593  -0.8444  -0.8276  -0.8249
    -0.7388  -0.7347  -0.6760  -0.6725  -0.6280  -0.6246  -0.4903  -0.4884
     1.0159   1.0172   1.2016   1.2020   1.4318   1.4327   1.4533   1.4536
     1.5290   1.5291   1.5452   1.5455   1.6863   1.6877   1.6970   1.7025
     1.9226   1.9266   1.9308   1.9318   2.1020   2.1065   2.1402   2.1437
     2.2324   2.2352   2.3658   2.3674   2.3893   2.3901   2.4213   2.4220
     2.4595   2.4625   2.4722   2.4750   2.5797   2.5842   2.7484   2.7575
     2.8058   2.8095   2.8260   2.8318   3.0226   3.0260   3.0437   3.0458
     3.1145   3.1152   3.2080   3.2178   3.3319   3.3336   3.3944   3.3972
     3.4275   3.4307   3.5236   3.5274   3.6169   3.6316   3.6740   3.6770
     3.7385   3.7449   3.8146   3.8234   3.8720   3.8764   3.9103   3.9162
     3.9429   3.9479   3.9755   3.9880   4.0047   4.0138   4.1323   4.1400
     4.1551   4.1623   4.2655   4.2834   4.2923   4.3169   4.3301   4.3474
     4.3642   4.3671   4.3675   4.3903   4.4409   4.4673   4.4770   4.4827
     4.4857   4.4918   4.6052   4.6146   4.6186   4.6411   4.6843   4.6861
     4.7035   4.7043   4.8130   4.8359   4.9879   4.9932   4.9980   5.0001
     5.0047   5.0330   5.0710   5.0915   5.1229   5.1256   5.1408   5.1458
     5.1885   5.1941   5.2690   5.3187   5.3491   5.3507   5.3612   5.3647
     5.4402   5.4441   5.4703   5.5028   5.5282   5.5306   5.5668   5.5858
     5.5920   5.6025   5.6040   5.6720   5.7097   5.7144   5.7490   5.7528
     5.7645   5.7743   5.7883   5.7971   5.8464   5.8536   5.8812   5.8822
     5.8949   5.9045   5.9207   5.9217   5.9671   5.9903   6.0094   6.0120
     6.0418   6.0614   6.0810   6.1132   6.1582   6.1693   6.1741   6.1821
     6.1854   6.1942   6.1978   6.2064   6.2156   6.2205   6.3458   6.3483
     6.3526   6.3645   6.3965   6.4013   6.4316   6.4366   6.4507   6.4553
     6.4684   6.4780   6.5018   6.5047   6.6152   6.6211   6.6286   6.6308
     6.6597   6.6670   6.7188   6.7254   6.8567   6.8617   6.8645   6.8743

          k = 0.2500 0.4330 0.0000 (108308 PWs)   bands (ev):

   -66.9954 -66.9835 -66.9831 -66.9595 -66.9516 -66.9474 -66.9416 -66.9396
   -66.9391 -66.9366 -66.9362 -66.9311 -66.9298 -66.9268 -66.9260 -66.9236
   -66.9192 -66.9144 -66.9118 -66.9113 -66.9095 -66.9077 -66.9074 -66.9061
   -66.7445 -66.7358 -66.7355 -66.7190 -66.7124 -66.7062 -66.7029 -66.7028
   -66.6989 -66.6988 -66.6968 -66.6959 -66.6621 -66.6374 -66.6341 -66.6255
   -66.6161 -66.6078 -66.5892 -66.5871 -66.5854 -66.5838 -66.5804 -66.5784
   -38.7996 -38.7885 -38.7868 -38.7653 -38.6702 -38.6695 -38.6632 -38.6596
   -38.6448 -38.6377 -38.6337 -38.6317 -38.6016 -38.5927 -38.5923 -38.5533
   -38.5468 -38.5352 -38.5343 -38.5287 -38.5278 -38.5115 -38.5080 -38.4952
   -38.4605 -38.4599 -38.4591 -38.4479 -38.4242 -38.3769 -38.3765 -38.3754
   -38.3671 -38.3640 -38.3548 -38.3514 -38.3513 -38.3453 -38.3451 -38.3365
   -38.3302 -38.3243 -38.3230 -38.3216 -38.3046 -38.2995 -38.2981 -38.2844
   -38.2758 -38.2747 -38.2716 -38.2671 -38.2636 -38.2608 -38.2572 -38.2567
   -38.2548 -38.2535 -38.2482 -38.2423 -38.2393 -38.2387 -38.2374 -38.2082
   -38.2043 -38.2013 -38.1979 -38.1924 -38.1910 -38.1877 -38.1857 -38.1792
   -38.1766 -38.1733 -38.1719 -38.1687 -38.1475 -38.1393 -38.1388 -38.1331
   -38.1298 -38.1280 -38.1272 -38.1234 -38.1173 -38.1106 -38.0970 -38.0884
   -38.0853 -38.0840 -38.0663 -38.0661 -38.0633 -38.0580 -38.0553 -38.0501
   -38.0433 -38.0318 -38.0306 -38.0258 -38.0207 -38.0106 -38.0088 -38.0037
   -37.9887 -37.9777 -37.9768 -37.9726 -37.9639 -37.9604 -37.9546 -37.9506
   -37.9470 -37.9417 -37.9408 -37.9364 -37.9250 -37.9209 -37.9198 -37.9171
   -37.9139 -37.9122 -37.9042 -37.9038 -37.8785 -37.8784 -37.8669 -37.8660
   -37.8644 -37.8549 -37.8546 -37.8470 -37.8292 -37.8183 -37.8151 -37.8140
   -37.7004 -37.6956 -37.6906 -37.6894 -37.6807 -37.6734 -37.6698 -37.6612
   -12.3226 -12.1095 -12.1089 -11.9159 -11.7817 -11.7802 -11.7316 -11.5647
   -11.5388 -11.4287 -11.4094 -11.4086 -11.3932 -11.3283 -11.2170 -11.2156
   -11.1938 -11.1931 -11.1048 -11.0856  -8.7727  -8.7274  -8.6999  -8.6998
    -8.6783  -2.9928  -2.8936  -2.8916  -2.8750  -2.7634  -2.7627  -2.7231
    -2.6860  -2.6343  -2.6209  -2.5995  -2.5962  -2.5526  -2.3653  -2.2313
    -2.2248  -2.2155  -2.1941  -2.1436  -2.1342  -2.0931  -2.0914  -1.9695
    -1.8117  -1.7836  -1.7132  -1.6859  -1.5951  -1.5484  -1.5397  -1.4774
    -1.4654  -1.4384  -1.4179  -1.4044  -1.3756  -1.3720  -1.3378  -1.3210
    -1.2825  -1.1925  -1.1875  -1.1474  -1.1461  -1.1237  -1.0795  -0.9651
    -0.9407  -0.9374  -0.8919  -0.8738  -0.8659  -0.8509  -0.8247  -0.8095
    -0.8089  -0.7585  -0.7482  -0.6664  -0.5689  -0.5579  -0.5556  -0.4613
     0.9502   1.1337   1.1341   1.2344   1.4187   1.4353   1.4359   1.4376
     1.4811   1.5624   1.5626   1.5898   1.6553   1.6745   1.6756   1.7336
     1.8518   1.9701   1.9712   2.0584   2.0594   2.1225   2.1243   2.1812
     2.1877   2.2497   2.2509   2.2829   2.3578   2.3635   2.3980   2.3983
     2.4490   2.4992   2.5650   2.5924   2.5929   2.6760   2.6769   2.7904
     2.7965   2.7985   2.8306   2.8351   2.9310   2.9374   2.9380   3.0041
     3.1859   3.2495   3.2942   3.2954   3.3395   3.3411   3.3480   3.4345
     3.4373   3.4398   3.4559   3.5643   3.5824   3.5849   3.6513   3.7103
     3.7194   3.7551   3.7568   3.7882   3.7947   3.8511   3.8739   3.8897
     4.0103   4.0335   4.0552   4.0636   4.0698   4.0812   4.0842   4.1230
     4.1518   4.1659   4.2051   4.2381   4.2426   4.2994   4.3118   4.3330
     4.3604   4.3685   4.3902   4.4060   4.4324   4.4409   4.4648   4.4744
     4.5621   4.5676   4.5907   4.5963   4.6053   4.6113   4.6502   4.6799
     4.7345   4.8641   4.8660   4.8839   4.8892   4.9024   4.9068   4.9125
     4.9597   4.9838   5.0426   5.0660   5.1274   5.1625   5.1671   5.1710
     5.1903   5.2802   5.2973   5.3197   5.3223   5.3512   5.4003   5.4297
     5.4394   5.4424   5.4605   5.4883   5.5070   5.5216   5.5638   5.5922
     5.6052   5.6261   5.6574   5.7145   5.7326   5.7345   5.7420   5.7446
     5.7785   5.7811   5.7829   5.7862   5.8055   5.8591   5.8678   5.8807
     5.8841   5.8953   5.9266   5.9307   5.9419   5.9735   5.9813   6.0320
     6.0372   6.0513   6.0704   6.0811   6.0985   6.1122   6.1143   6.1802
     6.1855   6.1879   6.2177   6.2218   6.2430   6.2755   6.2963   6.3146
     6.3453   6.3590   6.3760   6.3786   6.4358   6.4644   6.4754   6.5044
     6.5079   6.5107   6.5730   6.5733   6.6014   6.6244   6.6535   6.6771
     6.6784   6.6912   6.7209   6.7321   6.7523   6.7998   6.8552   6.8593

          k =-0.2500 0.1443 0.0000 (108355 PWs)   bands (ev):

   -67.0020 -66.9779 -66.9687 -66.9682 -66.9520 -66.9507 -66.9497 -66.9440
   -66.9355 -66.9338 -66.9329 -66.9300 -66.9290 -66.9284 -66.9228 -66.9213
   -66.9194 -66.9177 -66.9151 -66.9114 -66.9088 -66.9078 -66.9062 -66.9048
   -66.7495 -66.7317 -66.7251 -66.7249 -66.7118 -66.7117 -66.7075 -66.7008
   -66.7006 -66.6980 -66.6941 -66.6936 -66.6630 -66.6384 -66.6282 -66.6274
   -66.6163 -66.6095 -66.5890 -66.5885 -66.5871 -66.5838 -66.5789 -66.5772
   -38.8063 -38.7865 -38.7786 -38.7763 -38.6755 -38.6751 -38.6741 -38.6483
   -38.6400 -38.6311 -38.6309 -38.6284 -38.6023 -38.5872 -38.5730 -38.5690
   -38.5428 -38.5400 -38.5311 -38.5233 -38.5168 -38.5158 -38.5100 -38.4880
   -38.4722 -38.4709 -38.4697 -38.4481 -38.3885 -38.3878 -38.3827 -38.3779
   -38.3751 -38.3686 -38.3675 -38.3667 -38.3615 -38.3543 -38.3374 -38.3342
   -38.3331 -38.3251 -38.3185 -38.3180 -38.2968 -38.2877 -38.2810 -38.2729
   -38.2720 -38.2708 -38.2704 -38.2701 -38.2650 -38.2636 -38.2573 -38.2537
   -38.2510 -38.2498 -38.2432 -38.2382 -38.2374 -38.2319 -38.2248 -38.2202
   -38.2182 -38.2157 -38.2141 -38.2033 -38.1981 -38.1971 -38.1958 -38.1728
   -38.1661 -38.1611 -38.1594 -38.1578 -38.1533 -38.1461 -38.1460 -38.1337
   -38.1329 -38.1269 -38.1261 -38.1111 -38.1060 -38.1033 -38.1013 -38.0904
   -38.0893 -38.0846 -38.0759 -38.0644 -38.0589 -38.0565 -38.0537 -38.0466
   -38.0439 -38.0357 -38.0337 -38.0295 -38.0293 -38.0153 -38.0135 -38.0104
   -37.9793 -37.9750 -37.9723 -37.9653 -37.9643 -37.9616 -37.9529 -37.9511
   -37.9486 -37.9464 -37.9453 -37.9297 -37.9284 -37.9239 -37.9223 -37.9178
   -37.9160 -37.9071 -37.9065 -37.9027 -37.8765 -37.8729 -37.8723 -37.8640
   -37.8634 -37.8607 -37.8504 -37.8430 -37.8314 -37.8198 -37.8135 -37.8125
   -37.7074 -37.7001 -37.6953 -37.6786 -37.6775 -37.6755 -37.6645 -37.6618
   -12.4429 -12.0156 -11.9946 -11.8593 -11.8583 -11.7277 -11.6410 -11.6391
   -11.5658 -11.5643 -11.4854 -11.3399 -11.3384 -11.2908 -11.2715 -11.2705
   -11.2596 -11.2062 -11.0414 -11.0207  -8.7727  -8.7172  -8.7170  -8.7057
    -8.6650  -2.9786  -2.9749  -2.9352  -2.8225  -2.7517  -2.7394  -2.7162
    -2.7118  -2.7088  -2.5967  -2.5921  -2.4492  -2.4053  -2.3626  -2.3541
    -2.3523  -2.2947  -2.2428  -2.2168  -2.2084  -2.1635  -1.9678  -1.7918
    -1.7729  -1.7438  -1.6527  -1.6455  -1.5935  -1.5135  -1.5015  -1.4790
    -1.4567  -1.4257  -1.4069  -1.3880  -1.3765  -1.3417  -1.3264  -1.3143
    -1.2857  -1.2596  -1.2439  -1.2350  -1.1261  -1.0841  -1.0650  -1.0206
    -0.9598  -0.9121  -0.9042  -0.8970  -0.8556  -0.8385  -0.8371  -0.8177
    -0.8056  -0.7805  -0.7273  -0.6572  -0.6537  -0.5110  -0.4661  -0.4648
     0.7732   1.1822   1.2138   1.2139   1.4530   1.4531   1.4629   1.4654
     1.5306   1.5483   1.5490   1.5679   1.6293   1.6681   1.6696   1.6824
     1.7836   1.7873   1.8303   2.0690   2.0702   2.1142   2.1628   2.1662
     2.2188   2.2706   2.3054   2.3083   2.3311   2.4289   2.4310   2.4475
     2.4574   2.4597   2.5233   2.5525   2.5550   2.5714   2.5941   2.6229
     2.7261   2.8051   2.8063   2.8699   3.0251   3.0725   3.1373   3.2045
     3.2073   3.2377   3.2436   3.2714   3.3671   3.3715   3.3961   3.4031
     3.4040   3.4449   3.5221   3.5831   3.6043   3.6151   3.6448   3.6923
     3.7039   3.7146   3.7279   3.7355   3.7810   3.7856   3.7889   3.8703
     3.9930   4.0018   4.0192   4.0280   4.0389   4.0493   4.0640   4.1441
     4.1751   4.1895   4.2450   4.2559   4.2836   4.2966   4.3016   4.3115
     4.3374   4.3644   4.3831   4.3858   4.4058   4.4788   4.4862   4.4992
     4.5093   4.5686   4.5787   4.6586   4.6946   4.7371   4.7559   4.7654
     4.7854   4.7928   4.8427   4.8485   4.8924   4.9259   4.9458   4.9495
     4.9819   5.0008   5.0111   5.0681   5.1054   5.1384   5.1476   5.1890
     5.2022   5.2310   5.2983   5.3069   5.3414   5.3606   5.3869   5.4556
     5.4725   5.4758   5.4761   5.5268   5.5498   5.5609   5.5677   5.5800
     5.5824   5.6756   5.7061   5.7420   5.7517   5.7604   5.7648   5.7666
     5.7843   5.8161   5.8271   5.8332   5.8444   5.8858   5.8949   5.8986
     5.9048   5.9441   5.9605   5.9717   5.9769   5.9901   6.0180   6.0224
     6.0309   6.0399   6.0509   6.0559   6.0665   6.0693   6.0989   6.1895
     6.2064   6.2130   6.2330   6.2540   6.2574   6.2618   6.2634   6.3190
     6.3201   6.3220   6.3269   6.3730   6.4011   6.4089   6.4121   6.4607
     6.4718   6.4841   6.5418   6.5458   6.5592   6.5634   6.6548   6.6622
     6.6767   6.7005   6.7017   6.7224   6.7443   6.7664   6.8034   6.8067

          k = 0.2500 0.1443 0.0000 (108355 PWs)   bands (ev):

   -67.0020 -66.9779 -66.9688 -66.9682 -66.9520 -66.9506 -66.9500 -66.9439
   -66.9354 -66.9335 -66.9331 -66.9301 -66.9291 -66.9287 -66.9226 -66.9215
   -66.9190 -66.9179 -66.9151 -66.9113 -66.9093 -66.9074 -66.9062 -66.9048
   -66.7495 -66.7317 -66.7254 -66.7247 -66.7122 -66.7113 -66.7076 -66.7011
   -66.7003 -66.6981 -66.6941 -66.6936 -66.6630 -66.6381 -66.6288 -66.6267
   -66.6171 -66.6089 -66.5902 -66.5875 -66.5866 -66.5842 -66.5782 -66.5778
   -38.8063 -38.7866 -38.7788 -38.7761 -38.6759 -38.6750 -38.6738 -38.6488
   -38.6395 -38.6314 -38.6308 -38.6279 -38.6022 -38.5867 -38.5734 -38.5697
   -38.5428 -38.5399 -38.5308 -38.5231 -38.5173 -38.5156 -38.5103 -38.4878
   -38.4717 -38.4713 -38.4696 -38.4481 -38.3891 -38.3878 -38.3827 -38.3778
   -38.3748 -38.3687 -38.3675 -38.3665 -38.3617 -38.3541 -38.3380 -38.3344
   -38.3329 -38.3244 -38.3195 -38.3179 -38.2966 -38.2880 -38.2804 -38.2730
   -38.2718 -38.2707 -38.2702 -38.2699 -38.2658 -38.2621 -38.2574 -38.2532
   -38.2508 -38.2497 -38.2448 -38.2382 -38.2378 -38.2327 -38.2238 -38.2205
   -38.2177 -38.2148 -38.2140 -38.2040 -38.1990 -38.1967 -38.1957 -38.1719
   -38.1649 -38.1620 -38.1596 -38.1586 -38.1537 -38.1464 -38.1456 -38.1341
   -38.1324 -38.1269 -38.1253 -38.1122 -38.1094 -38.1032 -38.0964 -38.0911
   -38.0885 -38.0864 -38.0764 -38.0640 -38.0593 -38.0558 -38.0540 -38.0463
   -38.0442 -38.0363 -38.0335 -38.0303 -38.0292 -38.0145 -38.0132 -38.0103
   -37.9792 -37.9747 -37.9728 -37.9647 -37.9643 -37.9620 -37.9535 -37.9501
   -37.9477 -37.9463 -37.9447 -37.9302 -37.9289 -37.9240 -37.9226 -37.9178
   -37.9161 -37.9069 -37.9065 -37.9028 -37.8765 -37.8727 -37.8725 -37.8643
   -37.8631 -37.8606 -37.8504 -37.8429 -37.8315 -37.8196 -37.8135 -37.8125
   -37.7060 -37.7004 -37.6951 -37.6827 -37.6786 -37.6720 -37.6676 -37.6586
   -12.4429 -12.0157 -11.9945 -11.8598 -11.8577 -11.7277 -11.6422 -11.6379
   -11.5666 -11.5635 -11.4854 -11.3412 -11.3369 -11.2908 -11.2722 -11.2693
   -11.2600 -11.2063 -11.0414 -11.0207  -8.7727  -8.7171  -8.7171  -8.7057
    -8.6650  -2.9783  -2.9753  -2.9346  -2.8227  -2.7517  -2.7398  -2.7184
    -2.7113  -2.7092  -2.5962  -2.5922  -2.4460  -2.4036  -2.3639  -2.3525
    -2.3519  -2.2956  -2.2440  -2.2177  -2.2100  -2.1650  -1.9692  -1.7845
    -1.7729  -1.7427  -1.6591  -1.6427  -1.5852  -1.5232  -1.5043  -1.4800
    -1.4602  -1.4254  -1.4075  -1.3893  -1.3672  -1.3375  -1.3212  -1.3161
    -1.2820  -1.2584  -1.2541  -1.2355  -1.1279  -1.0830  -1.0683  -1.0201
    -0.9623  -0.9123  -0.9017  -0.8943  -0.8516  -0.8402  -0.8360  -0.8217
    -0.8088  -0.7802  -0.7232  -0.6580  -0.6548  -0.5104  -0.4670  -0.4649
     0.7735   1.1822   1.2137   1.2140   1.4530   1.4531   1.4630   1.4653
     1.5302   1.5484   1.5491   1.5679   1.6292   1.6682   1.6707   1.6822
     1.7849   1.7867   1.8302   2.0695   2.0705   2.1130   2.1639   2.1662
     2.2186   2.2715   2.3035   2.3074   2.3314   2.4292   2.4319   2.4472
     2.4585   2.4600   2.5222   2.5520   2.5542   2.5726   2.5943   2.6235
     2.7268   2.8055   2.8060   2.8686   3.0234   3.0730   3.1362   3.2051
     3.2067   3.2378   3.2436   3.2719   3.3684   3.3709   3.3956   3.4031
     3.4039   3.4436   3.5202   3.5939   3.6031   3.6162   3.6434   3.6832
     3.7077   3.7135   3.7218   3.7373   3.7814   3.7861   3.7894   3.8710
     3.9753   4.0067   4.0209   4.0310   4.0423   4.0494   4.0637   4.1541
     4.1771   4.1856   4.2460   4.2506   4.2823   4.3024   4.3119   4.3149
     4.3361   4.3601   4.3809   4.3846   4.4097   4.4759   4.4890   4.4966
     4.5039   4.5710   4.5808   4.6624   4.6905   4.7258   4.7504   4.7714
     4.7870   4.7995   4.8418   4.8581   4.8994   4.9360   4.9447   4.9524
     4.9754   4.9830   5.0093   5.0688   5.0855   5.1388   5.1542   5.1885
     5.2011   5.2342   5.2955   5.3131   5.3302   5.3608   5.3906   5.4583
     5.4725   5.4762   5.4771   5.5263   5.5583   5.5630   5.5716   5.5801
     5.5885   5.6878   5.7031   5.7131   5.7531   5.7581   5.7608   5.7674
     5.7959   5.8135   5.8190   5.8377   5.8471   5.8901   5.8943   5.8977
     5.9020   5.9401   5.9529   5.9724   5.9772   5.9861   6.0232   6.0248
     6.0330   6.0450   6.0483   6.0529   6.0677   6.0697   6.1018   6.1813
     6.2095   6.2132   6.2316   6.2548   6.2573   6.2611   6.2636   6.3091
     6.3216   6.3229   6.3262   6.3740   6.4041   6.4107   6.4215   6.4611
     6.4710   6.4780   6.5415   6.5478   6.5577   6.5656   6.6541   6.6626
     6.6759   6.6963   6.7030   6.7261   6.7441   6.7582   6.8075   6.8115

          k = 0.5000-0.2887 0.0000 (108310 PWs)   bands (ev):

   -66.9924 -66.9920 -66.9709 -66.9703 -66.9454 -66.9450 -66.9430 -66.9416
   -66.9395 -66.9388 -66.9322 -66.9308 -66.9306 -66.9297 -66.9259 -66.9249
   -66.9157 -66.9137 -66.9136 -66.9113 -66.9100 -66.9079 -66.9068 -66.9063
   -66.7423 -66.7421 -66.7266 -66.7264 -66.7069 -66.7067 -66.7044 -66.7040
   -66.6992 -66.6991 -66.6961 -66.6958 -66.6620 -66.6394 -66.6302 -66.6279
   -66.6149 -66.6085 -66.5889 -66.5876 -66.5847 -66.5836 -66.5817 -66.5778
   -38.7976 -38.7964 -38.7743 -38.7721 -38.6703 -38.6669 -38.6642 -38.6620
   -38.6410 -38.6376 -38.6355 -38.6336 -38.6016 -38.6000 -38.5752 -38.5707
   -38.5400 -38.5356 -38.5284 -38.5276 -38.5244 -38.5198 -38.5037 -38.5003
   -38.4651 -38.4636 -38.4525 -38.4514 -38.3978 -38.3971 -38.3743 -38.3735
   -38.3676 -38.3669 -38.3588 -38.3581 -38.3468 -38.3467 -38.3363 -38.3350
   -38.3305 -38.3297 -38.3221 -38.3204 -38.3092 -38.3084 -38.2849 -38.2747
   -38.2742 -38.2741 -38.2712 -38.2703 -38.2700 -38.2661 -38.2649 -38.2563
   -38.2507 -38.2506 -38.2499 -38.2424 -38.2402 -38.2397 -38.2188 -38.2168
   -38.2113 -38.1972 -38.1967 -38.1933 -38.1901 -38.1880 -38.1874 -38.1842
   -38.1788 -38.1714 -38.1685 -38.1675 -38.1434 -38.1391 -38.1386 -38.1367
   -38.1334 -38.1332 -38.1233 -38.1214 -38.1129 -38.1053 -38.1030 -38.0876
   -38.0856 -38.0834 -38.0679 -38.0635 -38.0606 -38.0566 -38.0509 -38.0492
   -38.0429 -38.0419 -38.0285 -38.0257 -38.0248 -38.0201 -37.9994 -37.9977
   -37.9884 -37.9864 -37.9775 -37.9742 -37.9633 -37.9620 -37.9509 -37.9482
   -37.9471 -37.9431 -37.9389 -37.9362 -37.9237 -37.9212 -37.9209 -37.9183
   -37.9099 -37.9094 -37.9091 -37.9080 -37.8744 -37.8737 -37.8700 -37.8697
   -37.8599 -37.8593 -37.8507 -37.8501 -37.8288 -37.8175 -37.8168 -37.8136
   -37.7060 -37.6958 -37.6850 -37.6845 -37.6768 -37.6748 -37.6738 -37.6639
   -12.2662 -12.2655 -11.8942 -11.8930 -11.8800 -11.8787 -11.6487 -11.6469
   -11.4779 -11.4767 -11.3526 -11.3522 -11.3399 -11.3379 -11.3151 -11.3149
   -11.1330 -11.1319 -11.1135 -11.1132  -8.7727  -8.7188  -8.7186  -8.6841
    -8.6840  -2.9459  -2.9378  -2.8478  -2.8460  -2.7834  -2.7813  -2.7769
    -2.7759  -2.6551  -2.6530  -2.5371  -2.5358  -2.3789  -2.3706  -2.3104
    -2.3101  -2.2554  -2.2502  -2.1377  -2.1244  -2.0514  -2.0411  -1.8562
    -1.8475  -1.7425  -1.7053  -1.6740  -1.6711  -1.6040  -1.5759  -1.4984
    -1.4522  -1.4480  -1.4467  -1.4043  -1.3887  -1.3065  -1.2796  -1.2686
    -1.2660  -1.2537  -1.2490  -1.1343  -1.1320  -1.0559  -1.0553  -1.0368
    -1.0245  -0.9090  -0.9067  -0.8762  -0.8605  -0.8564  -0.8411  -0.8031
    -0.7376  -0.7363  -0.6754  -0.6704  -0.6271  -0.6258  -0.4901  -0.4889
     1.0162   1.0171   1.2017   1.2018   1.4321   1.4328   1.4531   1.4535
     1.5290   1.5292   1.5454   1.5455   1.6872   1.6876   1.6966   1.7006
     1.9226   1.9267   1.9296   1.9316   2.1047   2.1052   2.1398   2.1440
     2.2337   2.2356   2.3658   2.3678   2.3892   2.3909   2.4205   2.4215
     2.4597   2.4612   2.4713   2.4746   2.5794   2.5847   2.7525   2.7571
     2.8067   2.8084   2.8248   2.8322   3.0256   3.0265   3.0445   3.0462
     3.1146   3.1151   3.2090   3.2120   3.3329   3.3337   3.3921   3.3971
     3.4259   3.4313   3.5243   3.5265   3.6134   3.6319   3.6738   3.6772
     3.7352   3.7457   3.8165   3.8245   3.8780   3.8873   3.9064   3.9168
     3.9423   3.9502   3.9721   3.9959   4.0070   4.0146   4.1273   4.1450
     4.1579   4.1634   4.2575   4.2621   4.2926   4.3132   4.3283   4.3516
     4.3549   4.3669   4.3724   4.3832   4.4476   4.4557   4.4717   4.4768
     4.4834   4.4904   4.6112   4.6155   4.6213   4.6538   4.6847   4.6858
     4.7044   4.7123   4.8179   4.8233   4.9877   4.9955   4.9985   5.0015
     5.0031   5.0325   5.0690   5.1217   5.1231   5.1256   5.1399   5.1599
     5.1861   5.1932   5.2640   5.2965   5.3499   5.3507   5.3614   5.3646
     5.4429   5.4462   5.4722   5.5073   5.5270   5.5312   5.5708   5.5781
     5.5892   5.6003   5.6037   5.6471   5.7123   5.7129   5.7459   5.7520
     5.7661   5.7721   5.7904   5.8177   5.8397   5.8629   5.8777   5.8826
     5.8968   5.9054   5.9151   5.9218   5.9731   5.9896   6.0084   6.0119
     6.0437   6.0614   6.0810   6.1355   6.1554   6.1699   6.1751   6.1803
     6.1833   6.1966   6.2057   6.2062   6.2200   6.2205   6.3444   6.3515
     6.3530   6.3580   6.3893   6.3972   6.4350   6.4356   6.4500   6.4540
     6.4694   6.4774   6.5019   6.5054   6.6114   6.6187   6.6291   6.6304
     6.6600   6.6700   6.7175   6.7386   6.8560   6.8614   6.8663   6.8715

          k =-0.5000-0.2887 0.0000 (108310 PWs)   bands (ev):

   -66.9923 -66.9921 -66.9709 -66.9702 -66.9455 -66.9452 -66.9426 -66.9424
   -66.9391 -66.9385 -66.9322 -66.9309 -66.9301 -66.9299 -66.9259 -66.9254
   -66.9148 -66.9139 -66.9135 -66.9122 -66.9096 -66.9084 -66.9065 -66.9061
   -66.7423 -66.7421 -66.7269 -66.7261 -66.7073 -66.7063 -66.7045 -66.7038
   -66.6996 -66.6988 -66.6961 -66.6958 -66.6621 -66.6387 -66.6308 -66.6278
   -66.6161 -66.6073 -66.5902 -66.5860 -66.5857 -66.5829 -66.5812 -66.5784
   -38.7976 -38.7965 -38.7744 -38.7719 -38.6698 -38.6667 -38.6646 -38.6629
   -38.6408 -38.6376 -38.6347 -38.6336 -38.6013 -38.5999 -38.5756 -38.5718
   -38.5395 -38.5353 -38.5295 -38.5280 -38.5236 -38.5204 -38.5029 -38.5004
   -38.4645 -38.4638 -38.4525 -38.4513 -38.3984 -38.3971 -38.3740 -38.3734
   -38.3676 -38.3671 -38.3587 -38.3582 -38.3476 -38.3461 -38.3360 -38.3352
   -38.3303 -38.3299 -38.3241 -38.3203 -38.3086 -38.3079 -38.2849 -38.2748
   -38.2743 -38.2738 -38.2702 -38.2701 -38.2695 -38.2659 -38.2633 -38.2562
   -38.2526 -38.2513 -38.2507 -38.2421 -38.2401 -38.2394 -38.2190 -38.2167
   -38.2089 -38.1986 -38.1981 -38.1937 -38.1897 -38.1883 -38.1864 -38.1847
   -38.1741 -38.1720 -38.1692 -38.1684 -38.1459 -38.1416 -38.1384 -38.1368
   -38.1340 -38.1337 -38.1207 -38.1193 -38.1143 -38.1052 -38.0995 -38.0927
   -38.0843 -38.0839 -38.0680 -38.0631 -38.0607 -38.0571 -38.0515 -38.0499
   -38.0434 -38.0411 -38.0299 -38.0259 -38.0229 -38.0190 -38.0007 -37.9985
   -37.9892 -37.9859 -37.9741 -37.9735 -37.9630 -37.9621 -37.9524 -37.9460
   -37.9453 -37.9430 -37.9400 -37.9371 -37.9255 -37.9221 -37.9200 -37.9183
   -37.9096 -37.9095 -37.9088 -37.9082 -37.8741 -37.8739 -37.8703 -37.8696
   -37.8603 -37.8590 -37.8505 -37.8501 -37.8289 -37.8185 -37.8148 -37.8143
   -37.7003 -37.6959 -37.6920 -37.6866 -37.6801 -37.6767 -37.6672 -37.6622
   -12.2667 -12.2651 -11.8946 -11.8923 -11.8811 -11.8778 -11.6498 -11.6457
   -11.4787 -11.4760 -11.3529 -11.3517 -11.3420 -11.3360 -11.3156 -11.3142
   -11.1347 -11.1304 -11.1134 -11.1132  -8.7727  -8.7187  -8.7187  -8.6840
    -8.6840  -2.9443  -2.9392  -2.8483  -2.8461  -2.7831  -2.7802  -2.7788
    -2.7752  -2.6545  -2.6533  -2.5380  -2.5358  -2.3796  -2.3703  -2.3143
    -2.3055  -2.2590  -2.2513  -2.1335  -2.1250  -2.0489  -2.0415  -1.8526
    -1.8484  -1.7435  -1.7091  -1.6786  -1.6652  -1.5915  -1.5727  -1.4981
    -1.4904  -1.4498  -1.4439  -1.3990  -1.3517  -1.3152  -1.2887  -1.2697
    -1.2667  -1.2542  -1.2458  -1.1381  -1.1306  -1.0564  -1.0544  -1.0397
    -1.0316  -0.9094  -0.9062  -0.8695  -0.8583  -0.8499  -0.8381  -0.8119
    -0.7388  -0.7346  -0.6748  -0.6742  -0.6279  -0.6248  -0.4904  -0.4886
     1.0161   1.0178   1.2016   1.2020   1.4318   1.4331   1.4533   1.4537
     1.5289   1.5291   1.5453   1.5456   1.6864   1.6880   1.6970   1.7025
     1.9230   1.9269   1.9306   1.9319   2.1034   2.1058   2.1399   2.1437
     2.2328   2.2346   2.3658   2.3676   2.3890   2.3901   2.4215   2.4220
     2.4594   2.4624   2.4721   2.4752   2.5801   2.5851   2.7511   2.7557
     2.8037   2.8091   2.8272   2.8315   3.0217   3.0262   3.0428   3.0450
     3.1143   3.1151   3.2106   3.2175   3.3317   3.3347   3.3949   3.3960
     3.4271   3.4303   3.5247   3.5272   3.6217   3.6310   3.6730   3.6765
     3.7374   3.7428   3.8156   3.8232   3.8693   3.8748   3.9086   3.9158
     3.9421   3.9485   3.9743   3.9903   4.0018   4.0119   4.1345   4.1469
     4.1562   4.1624   4.2594   4.2783   4.2911   4.3178   4.3262   4.3500
     4.3640   4.3658   4.3695   4.3897   4.4449   4.4653   4.4768   4.4813
     4.4842   4.5000   4.6086   4.6117   4.6144   4.6435   4.6836   4.6861
     4.7032   4.7048   4.8163   4.8369   4.9890   4.9945   4.9983   5.0007
     5.0052   5.0334   5.0660   5.0881   5.1219   5.1260   5.1413   5.1455
     5.1892   5.1945   5.2702   5.3210   5.3487   5.3506   5.3611   5.3646
     5.4421   5.4442   5.4699   5.5010   5.5295   5.5318   5.5689   5.5828
     5.5912   5.5983   5.6055   5.6761   5.7078   5.7154   5.7494   5.7535
     5.7676   5.7726   5.7800   5.7950   5.8516   5.8529   5.8829   5.8843
     5.8886   5.9046   5.9195   5.9216   5.9655   5.9896   6.0102   6.0119
     6.0423   6.0614   6.0805   6.1144   6.1585   6.1694   6.1784   6.1815
     6.1826   6.1935   6.2011   6.2077   6.2155   6.2202   6.3438   6.3514
     6.3529   6.3646   6.3960   6.3996   6.4308   6.4382   6.4505   6.4555
     6.4676   6.4782   6.5028   6.5049   6.6157   6.6222   6.6288   6.6313
     6.6600   6.6675   6.7179   6.7223   6.8580   6.8627   6.8647   6.8761

          k =-0.2500 0.4330 0.0000 (108308 PWs)   bands (ev):

   -66.9954 -66.9834 -66.9832 -66.9596 -66.9514 -66.9473 -66.9419 -66.9393
   -66.9391 -66.9368 -66.9364 -66.9305 -66.9303 -66.9272 -66.9253 -66.9234
   -66.9197 -66.9143 -66.9118 -66.9115 -66.9089 -66.9081 -66.9072 -66.9062
   -66.7445 -66.7357 -66.7356 -66.7190 -66.7124 -66.7061 -66.7030 -66.7027
   -66.6993 -66.6984 -66.6968 -66.6959 -66.6620 -66.6381 -66.6332 -66.6259
   -66.6151 -66.6085 -66.5882 -66.5875 -66.5860 -66.5836 -66.5808 -66.5780
   -38.7996 -38.7886 -38.7867 -38.7654 -38.6701 -38.6694 -38.6638 -38.6592
   -38.6444 -38.6381 -38.6333 -38.6324 -38.6019 -38.5926 -38.5920 -38.5527
   -38.5467 -38.5351 -38.5346 -38.5293 -38.5275 -38.5109 -38.5082 -38.4955
   -38.4612 -38.4597 -38.4589 -38.4479 -38.4239 -38.3768 -38.3762 -38.3757
   -38.3671 -38.3640 -38.3548 -38.3525 -38.3508 -38.3452 -38.3450 -38.3363
   -38.3300 -38.3238 -38.3227 -38.3215 -38.3056 -38.2992 -38.2981 -38.2845
   -38.2759 -38.2748 -38.2715 -38.2675 -38.2642 -38.2609 -38.2573 -38.2568
   -38.2545 -38.2529 -38.2481 -38.2429 -38.2398 -38.2383 -38.2373 -38.2085
   -38.2044 -38.1994 -38.1987 -38.1924 -38.1905 -38.1886 -38.1849 -38.1801
   -38.1783 -38.1722 -38.1706 -38.1694 -38.1461 -38.1396 -38.1382 -38.1325
   -38.1300 -38.1294 -38.1274 -38.1233 -38.1171 -38.1114 -38.0961 -38.0888
   -38.0849 -38.0841 -38.0666 -38.0659 -38.0626 -38.0575 -38.0560 -38.0500
   -38.0421 -38.0326 -38.0302 -38.0265 -38.0220 -38.0094 -38.0083 -38.0028
   -37.9896 -37.9787 -37.9770 -37.9726 -37.9643 -37.9598 -37.9545 -37.9498
   -37.9483 -37.9427 -37.9416 -37.9357 -37.9234 -37.9212 -37.9200 -37.9169
   -37.9140 -37.9120 -37.9043 -37.9037 -37.8790 -37.8779 -37.8669 -37.8659
   -37.8643 -37.8550 -37.8546 -37.8471 -37.8291 -37.8185 -37.8150 -37.8140
   -37.7030 -37.6964 -37.6909 -37.6839 -37.6795 -37.6738 -37.6703 -37.6631
   -12.3226 -12.1099 -12.1085 -11.9158 -11.7826 -11.7793 -11.7317 -11.5647
   -11.5388 -11.4287 -11.4097 -11.4083 -11.3932 -11.3282 -11.2186 -11.2140
   -11.1940 -11.1929 -11.1048 -11.0856  -8.7727  -8.7274  -8.6999  -8.6999
    -8.6783  -2.9929  -2.8944  -2.8910  -2.8750  -2.7646  -2.7617  -2.7211
    -2.6856  -2.6343  -2.6214  -2.5998  -2.5962  -2.5539  -2.3633  -2.2368
    -2.2243  -2.2148  -2.1947  -2.1405  -2.1334  -2.0954  -2.0899  -1.9665
    -1.8126  -1.7856  -1.7139  -1.6830  -1.5988  -1.5574  -1.5372  -1.4762
[...]
     6.7431   6.7786   6.7974   6.8108   6.8183   6.8751   6.9293   6.9402

          k = 0.5000-0.0000 0.0000 (108308 PWs)   bands (ev):

   -66.9323 -66.9215 -66.9192 -66.8978 -66.8898 -66.8834 -66.8802 -66.8780
   -66.8751 -66.8739 -66.8716 -66.8700 -66.8688 -66.8665 -66.8641 -66.8571
   -66.8526 -66.8473 -66.8444 -66.8425 -66.8395 -66.8385 -66.8371 -66.8325
   -66.6888 -66.6810 -66.6806 -66.6699 -66.6436 -66.6395 -66.6386 -66.6374
   -66.6337 -66.6334 -66.6325 -66.6300 -66.5963 -66.5725 -66.5678 -66.5599
   -66.5566 -66.5548 -66.5150 -66.5111 -66.5076 -66.5027 -66.5016 -66.5002
   -38.7254 -38.7142 -38.7090 -38.6888 -38.6006 -38.5963 -38.5933 -38.5861
   -38.5761 -38.5733 -38.5683 -38.5665 -38.5365 -38.5247 -38.5214 -38.4861
   -38.4829 -38.4760 -38.4741 -38.4701 -38.4605 -38.4565 -38.4540 -38.4505
   -38.3958 -38.3953 -38.3945 -38.3881 -38.3803 -38.3728 -38.3713 -38.3692
   -38.3586 -38.3000 -38.2951 -38.2945 -38.2924 -38.2811 -38.2806 -38.2696
   -38.2666 -38.2641 -38.2603 -38.2554 -38.2419 -38.2340 -38.2328 -38.2295
   -38.2288 -38.2248 -38.2221 -38.2198 -38.2110 -38.2098 -38.2087 -38.2014
   -38.1955 -38.1942 -38.1909 -38.1821 -38.1751 -38.1733 -38.1709 -38.1514
   -38.1443 -38.1414 -38.1390 -38.1376 -38.1299 -38.1279 -38.1252 -38.1162
   -38.1114 -38.1093 -38.1044 -38.1010 -38.0851 -38.0780 -38.0754 -38.0706
   -38.0684 -38.0656 -38.0652 -38.0596 -38.0548 -38.0530 -38.0384 -38.0339
   -38.0301 -38.0244 -37.9913 -37.9896 -37.9856 -37.9791 -37.9780 -37.9692
   -37.9633 -37.9560 -37.9526 -37.9452 -37.9426 -37.9397 -37.9358 -37.9320
   -37.9183 -37.9061 -37.8971 -37.8951 -37.8888 -37.8832 -37.8812 -37.8768
   -37.8704 -37.8677 -37.8663 -37.8631 -37.8552 -37.8535 -37.8507 -37.8464
   -37.8434 -37.8417 -37.8400 -37.8377 -37.8076 -37.8067 -37.8013 -37.7963
   -37.7940 -37.7852 -37.7849 -37.7770 -37.7592 -37.7559 -37.7514 -37.7493
   -37.6622 -37.6295 -37.6212 -37.6114 -37.5996 -37.5945 -37.5839 -37.5800
   -12.2093 -11.9970 -11.9926 -11.8089 -11.6685 -11.6625 -11.6276 -11.4591
   -11.3841 -11.3262 -11.3065 -11.3010 -11.2424 -11.2325 -11.1218 -11.1021
   -11.0284 -11.0246 -10.9995 -10.9090  -9.1923  -9.1433  -9.1426  -9.1033
    -8.5934  -2.8882  -2.7897  -2.7800  -2.7653  -2.6532  -2.6469  -2.6003
    -2.5700  -2.5155  -2.5085  -2.4837  -2.4754  -2.4341  -2.2605  -2.1144
    -2.1119  -2.1086  -2.0623  -2.0289  -2.0186  -1.9738  -1.9720  -1.8536
    -1.6775  -1.6613  -1.5890  -1.5657  -1.5118  -1.4819  -1.4248  -1.4134
    -1.3456  -1.3117  -1.2973  -1.2789  -1.2676  -1.2572  -1.2499  -1.1882
    -1.0773  -1.0699  -1.0349  -1.0279  -1.0134  -0.9771  -0.9489  -0.8717
    -0.8540  -0.8336  -0.8202  -0.7815  -0.7606  -0.7354  -0.7256  -0.7116
    -0.6873  -0.6207  -0.6059  -0.5469  -0.4515  -0.4212  -0.4032  -0.2831
     0.8112   0.8673   0.8677   0.9055   1.1027   1.1055   1.1504   1.1537
     1.1542   1.2127   1.2182   1.2194   1.4159   1.5463   1.5677   1.7584
     1.9107   2.0167   2.0256   2.0535   2.1179   2.1278   2.1340   2.1425
     2.2255   2.2989   2.3086   2.3719   2.4462   2.4479   2.4787   2.4859
     2.5240   2.5815   2.6399   2.6501   2.6547   2.7383   2.7456   2.7949
     2.8577   2.8766   2.8849   2.9057   2.9782   2.9841   2.9976   3.0857
     3.2276   3.3089   3.3534   3.3700   3.4010   3.4119   3.4264   3.4952
     3.5061   3.5125   3.5266   3.6090   3.6142   3.6275   3.7054   3.7694
     3.7758   3.7932   3.8194   3.8359   3.8623   3.9105   3.9242   3.9457
     4.0735   4.0947   4.1082   4.1208   4.1347   4.1410   4.1576   4.1796
     4.2051   4.2518   4.2738   4.2960   4.3067   4.3513   4.3609   4.3681
     4.3958   4.4167   4.4494   4.4578   4.4891   4.4995   4.5250   4.5328
     4.6117   4.6167   4.6402   4.6472   4.6580   4.6738   4.7058   4.7316
     4.7597   4.8998   4.9177   4.9276   4.9554   4.9639   4.9857   4.9991
     5.0399   5.0858   5.0971   5.1438   5.1851   5.2139   5.2363   5.2586
     5.2686   5.3227   5.3579   5.3817   5.4024   5.4131   5.4631   5.4919
     5.5042   5.5070   5.5238   5.5496   5.5690   5.5808   5.6074   5.6579
     5.6665   5.6979   5.7326   5.7878   5.7953   5.8027   5.8101   5.8310
     5.8437   5.8517   5.8570   5.8704   5.8884   5.9278   5.9336   5.9409
     5.9499   5.9607   5.9795   5.9935   6.0109   6.0362   6.0578   6.0925
     6.1134   6.1312   6.1452   6.1497   6.1685   6.1958   6.2072   6.2572
     6.2635   6.2763   6.3005   6.3172   6.3376   6.3642   6.3711   6.3899
     6.4149   6.4307   6.4384   6.4598   6.5206   6.5369   6.5504   6.5820
     6.5897   6.5971   6.6311   6.6362   6.6726   6.7062   6.7234   6.7315
     6.7432   6.7753   6.7967   6.8108   6.8226   6.8745   6.9292   6.9410

     the Fermi energy is     5.2670 ev

!    total energy              =  -12616.46324532 Ry
     total all-electron energy =   -103594.967052 Ry
     estimated scf accuracy    <          8.7E-11 Ry
     smearing contrib. (-TS)   =       0.01053676 Ry
     internal energy E=F+TS    =  -12616.47378208 Ry

     The total energy is F=E-TS. E is the sum of the following terms:
     one-electron contribution =  -67403.91601884 Ry
     hartree contribution      =   33817.46930560 Ry
     xc contribution           =   -1216.09793761 Ry
     ewald contribution        =   25948.43771003 Ry
     DFT-D3 Dispersion         =      -1.08549823 Ry
     one-center paw contrib.   =   -3761.28134303 Ry

     convergence has been achieved in  46 iterations

     negative rho (up, down):  1.983E-04 0.000E+00

     Forces acting on atoms (cartesian axes, Ry/au):

     atom    1 type  1   force =     0.00034370   -0.00015861    0.00008208
     atom    2 type  1   force =    -0.00027691    0.00018150   -0.00002769
     atom    3 type  1   force =     0.00010042    0.00008328   -0.00004408
     atom    4 type  1   force =     0.00014186    0.00027165   -0.00014605
     atom    5 type  1   force =    -0.00007955   -0.00024333   -0.00011442
     atom    6 type  1   force =    -0.00015509   -0.00022758   -0.00018073
     atom    7 type  2   force =    -0.00009904   -0.00012702   -0.00029745
     atom    8 type  2   force =    -0.00014770   -0.00013626   -0.00014324
     atom    9 type  2   force =    -0.00000662   -0.00020785   -0.00002514
     atom   10 type  1   force =    -0.00025604    0.00008346    0.00001900
     atom   11 type  1   force =     0.00013929   -0.00002891    0.00006069
     atom   12 type  1   force =     0.00002325    0.00014097    0.00067903
     atom   13 type  1   force =    -0.00015404   -0.00002921   -0.00016633
     atom   14 type  1   force =    -0.00022262    0.00026148    0.00000211
     atom   15 type  1   force =     0.00026156    0.00023977    0.00011398
     atom   16 type  2   force =     0.00017061    0.00028148   -0.00002834
     atom   17 type  2   force =    -0.00005633    0.00002170   -0.00007955
     atom   18 type  2   force =    -0.00024088   -0.00010260   -0.00023803
     atom   19 type  1   force =     0.00006475   -0.00000267    0.00012292
     atom   20 type  1   force =    -0.00000819   -0.00030783   -0.00012778
     atom   21 type  1   force =     0.00006914   -0.00001546   -0.00000245
     atom   22 type  1   force =     0.00004627   -0.00000848   -0.00008810
     atom   23 type  1   force =    -0.00006183   -0.00015958   -0.00007807
     atom   24 type  1   force =    -0.00049252   -0.00005994    0.00029052
     atom   25 type  2   force =    -0.00003562   -0.00001798   -0.00038050
     atom   26 type  2   force =     0.00003450   -0.00006065    0.00019476
     atom   27 type  2   force =     0.00004128   -0.00004580    0.00018945
     atom   28 type  1   force =    -0.00014278   -0.00053226    0.00008758
     atom   29 type  1   force =    -0.00007211    0.00009335   -0.00029805
     atom   30 type  1   force =    -0.00028432   -0.00021732    0.00018208
     atom   31 type  1   force =    -0.00019648    0.00000388   -0.00024732
     atom   32 type  1   force =     0.00057018    0.00056995   -0.00050747
     atom   33 type  1   force =    -0.00010612    0.00042015    0.00004409
     atom   34 type  2   force =     0.00001600   -0.00032913   -0.00018999
     atom   35 type  2   force =    -0.00015663    0.00031497   -0.00041927
     atom   36 type  2   force =     0.00001361    0.00012907    0.00022034
     atom   37 type  1   force =    -0.00016484   -0.00028389   -0.00013729
     atom   38 type  1   force =    -0.00000455    0.00002282    0.00006612
     atom   39 type  1   force =    -0.00005569    0.00004815   -0.00004652
     atom   40 type  1   force =     0.00007266   -0.00003550   -0.00013706
     atom   41 type  1   force =     0.00023304   -0.00045515    0.00019513
     atom   42 type  1   force =    -0.00004946   -0.00018025   -0.00000267
     atom   43 type  2   force =     0.00009233   -0.00008537   -0.00035558
     atom   44 type  2   force =    -0.00004309    0.00001361    0.00027409
     atom   45 type  2   force =    -0.00000023   -0.00000799    0.00007228
     atom   46 type  1   force =    -0.00012745    0.00018735   -0.00007397
     atom   47 type  1   force =    -0.00057659   -0.00048744    0.00008694
     atom   48 type  1   force =    -0.00022608   -0.00016654    0.00017386
     atom   49 type  1   force =    -0.00031990   -0.00003255   -0.00012642
     atom   50 type  1   force =     0.00018696    0.00026700   -0.00000382
     atom   51 type  1   force =     0.00013847    0.00089326   -0.00050674
     atom   52 type  2   force =    -0.00032109    0.00000311   -0.00018671
     atom   53 type  2   force =    -0.00008975    0.00007188    0.00025894
     atom   54 type  2   force =     0.00008322    0.00019607   -0.00025348
     atom   55 type  1   force =    -0.00011401   -0.00011573    0.00004406
     atom   56 type  1   force =    -0.00001577   -0.00015027   -0.00005441
     atom   57 type  1   force =     0.00006923   -0.00003758    0.00031416
     atom   58 type  1   force =     0.00008857    0.00019316    0.00031166
     atom   59 type  1   force =     0.00019528   -0.00013953    0.00046520
     atom   60 type  1   force =    -0.00024104    0.00011132    0.00043672
     atom   61 type  2   force =     0.00020856    0.00046935   -0.00012575
     atom   62 type  2   force =     0.00001520    0.00004047    0.00044865
     atom   63 type  2   force =     0.00001550   -0.00005848    0.00054564
     atom   64 type  1   force =     0.00023088   -0.00035969    0.00034081
     atom   65 type  1   force =    -0.00037411    0.00008470    0.00060199
     atom   66 type  1   force =     0.00006842    0.00014416    0.00049384
     atom   67 type  1   force =     0.00013415    0.00020841   -0.00009701
     atom   68 type  1   force =     0.00021523   -0.00005939    0.00011789
     atom   69 type  1   force =    -0.00027542    0.00031612    0.00020269
     atom   70 type  2   force =    -0.00003226   -0.00017870   -0.00008522
     atom   71 type  2   force =     0.00015183   -0.00007804   -0.00056257
     atom   72 type  2   force =    -0.00015276    0.00000975   -0.00074276
     atom   73 type  3   force =     0.00070403   -0.00033490   -0.00015760
     atom   74 type  4   force =     0.00076994   -0.00047558   -0.00051837
     atom   75 type  4   force =     0.00077409    0.00069381    0.00008112
     atom   76 type  4   force =     0.00019444   -0.00065536    0.00033020
     atom   77 type  4   force =    -0.00024297    0.00032525   -0.00014665

     Total force =     0.003954     Total SCF correction =     0.000055
     Energy error            =      3.3E-05 Ry
     Gradient error          =      8.9E-04 Ry/Bohr

     bfgs converged in  45 scf cycles and  44 bfgs steps
     (criteria: energy <  1.0E-04 Ry, force <  1.0E-03 Ry/Bohr)

     End of BFGS Geometry Optimization

     Final energy             =  -12616.4632453234 Ry

     File tmp/CH4-H22_Rot45_bridge_/CH4-H22_Rot45_bridge_.bfgs deleted, as requested
Begin final coordinates

ATOMIC_POSITIONS (angstrom)
Cr              -1.5989444034        2.7793145347        8.2301532489
Cr               3.1915724594        0.0148739835        8.2299091441
Cr               0.7803007799        1.3688454953        8.2289678475
Cr               1.6281815353        2.8383255411        6.1021423861
Cr              -0.7456077927        1.3108568637        6.0999811993
Cr               1.4923205941        0.0187996906        6.1003478592
N                0.0017776141        0.0206889328        5.0567513862
N                2.3771910685        1.3893940982        7.0890000639
N               -0.0012788767        2.7621791138        7.0890941023
Cr              -1.6509919798        2.8675040673       12.4947415172
Cr               3.2973532048        0.0066660730       12.4962857036
Cr               0.7008093995        1.2307923079       12.4623256008
Cr               1.5995893958        2.7796604747       10.4320122516
Cr              -0.7900855566        1.3617587223       10.4121401775
Cr               1.5621079071        0.0063450293       10.4130087753
N               -0.0004286774        0.0152798604        9.3038324818
N                2.3703907765        1.3867830201       11.5453852889
N                0.0025958898        2.7508991834       11.5363772202
Cr              -3.9736084681        6.8944552604        8.2245667407
Cr               0.8198956241        4.1342313336        8.2288127837
Cr              -1.5971166039        5.4788013528        8.2262667815
Cr              -0.7457383007        6.9551225681        6.0991423650
Cr              -3.1215610128        5.4223362743        6.1001556453
Cr              -0.8834214655        4.1314272082        6.0970268871
N               -2.3753268183        4.1316722272        5.0559632723
N                0.0005262552        5.5027208548        7.0848245136
N               -2.3755368714        6.8747834356        7.0841060264
Cr              -4.0178177767        6.9792447077       12.5007800191
Cr               0.8773784817        4.1244103038       12.5177353628
Cr              -1.6548561233        5.3927807390       12.5097505092
Cr              -0.7803144008        6.8877573209       10.4186313803
Cr              -3.1477144814        5.4791339726       10.4168951563
Cr              -0.8079548121        4.1320070813       10.4276068354
N               -2.3734642980        4.1289434290        9.3120273423
N                0.0068189731        5.5012249842       11.5630200191
N               -2.3736804662        6.8695183047       11.5357223941
Cr               3.1552328711        2.7861360634        8.2281965551
Cr               7.9427175131        0.0150938018        8.2241628396
Cr               5.5279546423        1.3658322216        8.2260287830
Cr               6.3803782766        2.8409206668        6.0984019973
Cr               4.0037642119        1.3096757446        6.0966208045
Cr               6.2406679480        0.0168482458        6.0992397057
N                4.7493132014        0.0175417047        5.0556687165
N                7.1254905579        1.3886287019        7.0830907450
N                4.7498433775        2.7606384971        7.0842528762
Cr               3.1128395877        2.8302009618       12.5435166094
Cr               8.0387949132        0.0191010517       12.5022181047
Cr               5.4853617714        1.2700725237       12.5110908716
Cr               6.3380356289        2.7772326333       10.4221438032
Cr               3.9682244614        1.3753339251       10.4313010998
Cr               6.3051114104        0.0228973016       10.4160664419
N                4.7471146103        0.0202905419        9.3129294101
N                7.1220474334        1.3885064869       11.5359229496
N                4.7383186801        2.7641505879       11.5728102449
Cr               0.7799242815        6.8948196905        8.2308656229
Cr               5.5654789374        4.1307863271        8.2307862165
Cr               3.1523538551        5.4786700512        8.2254576144
Cr               4.0058985303        6.9557653093        6.0953786377
Cr               1.6273356352        5.4229758046        6.0944645890
Cr               3.8668782913        4.1298492032        6.0944603070
N                2.3726826650        4.1278994211        5.0552845209
N                4.7484753355        5.5012917209        7.0812808056
N                2.3748338847        6.8722842130        7.0805271115
Cr               0.7050871055        7.0218835243       12.4997707407
Cr               5.7153230113        4.1291842994       12.4983200279
Cr               3.1332665794        5.4464630289       12.4510665386
Cr               3.9680994502        6.8892746766       10.4257024243
Cr               1.5863177037        5.4851349443       10.4223701999
Cr               3.9423879906        4.1203727727       10.4261982463
N                2.3767772014        4.1317467331        9.3183911313
N                4.7701982347        5.4931796310       11.5341257557
N                2.3585151189        6.8886122831       11.5335621441
C                2.0272671652        3.2755584988       15.1655276973
H                2.3533831329        4.2123599941       15.6253376766
H                1.7375724760        2.5262392960       15.9157070405
H                1.1070926704        3.4432900467       14.5609948963
H                2.8904668838        2.8176768282       14.6171899679
End final coordinates



     Writing all to output data dir tmp/CH4-H22_Rot45_bridge_/CH4-H22_Rot45_bridge_.save/ :
     XML data file, charge density, pseudopotentials, collected wavefunctions
 
     init_run     :     18.12s CPU     18.91s WALL (       1 calls)
     electrons    :  71597.32s CPU  73549.46s WALL (      45 calls)
     update_pot   :     54.97s CPU     57.48s WALL (      44 calls)
     forces       :    456.91s CPU    473.70s WALL (      45 calls)
     force_dftd3  :      9.28s CPU      9.79s WALL (      45 calls)

     Called by init_run:
     wfcinit      :     13.81s CPU     14.22s WALL (       1 calls)
     potinit      :      1.02s CPU      1.17s WALL (       1 calls)
     hinit0       :      0.40s CPU      0.45s WALL (       1 calls)

     Called by electrons:
     c_bands      :  58853.68s CPU  60101.77s WALL (    1862 calls)
     sum_band     :  10002.98s CPU  10366.43s WALL (    1862 calls)
     v_of_rho     :   1061.31s CPU   1137.30s WALL (    1874 calls)
     newd         :    813.93s CPU   1049.38s WALL (    1874 calls)
     PAW_pot      :    670.40s CPU    678.60s WALL (    1918 calls)
     mix_rho      :    148.76s CPU    159.70s WALL (    1862 calls)
     energy_dftd3 :      5.07s CPU      5.11s WALL (      45 calls)

     Called by c_bands:
     init_us_2    :   1033.21s CPU   1047.15s WALL (   11442 calls)
     cegterg      :  55162.09s CPU  56376.56s WALL (    5586 calls)

     Called by *egterg:
     cdiaghg      :   1893.02s CPU   1914.30s WALL (   18150 calls)
     h_psi        :  26870.71s CPU  27387.88s WALL (   18384 calls)
     s_psi        :   6495.07s CPU   6561.59s WALL (   18384 calls)
     g_psi        :    125.05s CPU    126.72s WALL (   12795 calls)

     Called by h_psi:
     h_psi:calbec :   6572.69s CPU   6641.29s WALL (   18384 calls)
     vloc_psi     :  13562.50s CPU  13783.27s WALL (   18384 calls)
                                        0.00s GPU  (   18384 calls)
     add_vuspsi   :   6513.72s CPU   6581.64s WALL (   18384 calls)

     General routines
     calbec       :  10001.32s CPU  10103.14s WALL (   24642 calls)
     fft          :    851.21s CPU    920.21s WALL (   24844 calls)
     ffts         :     11.67s CPU     13.19s WALL (    3736 calls)
     fftw         :  13649.52s CPU  13859.42s WALL (13993878 calls)
     interpolate  :     61.89s CPU     68.14s WALL (    1874 calls)
 
     Parallel routines
 
     PWSCF        :     20h 4m CPU     20h37m WALL

 
   This run was terminated on:  10: 4:35   4Jun2026            

=------------------------------------------------------------------------------=
   JOB DONE.
=------------------------------------------------------------------------------=
