
     Program PWSCF v.7.5 starts on  8Jun2026 at 20:31:21 

     This program is part of the open-source Quantum ESPRESSO suite
     for quantum simulation of materials; please cite
         "P. Giannozzi et al., J. Phys.:Condens. Matter 21 395502 (2009);
         "P. Giannozzi et al., J. Phys.:Condens. Matter 29 465901 (2017);
         "P. Giannozzi et al., J. Chem. Phys. 152 154105 (2020);
          URL http://www.quantum-espresso.org", 
     in publications or presentations arising from this work. More details at
     http://www.quantum-espresso.org/quote

     Parallel version (MPI & OpenMP), running on      64 processor cores
     Number of MPI processes:                64
     Threads/MPI process:                     1

     MPI processes distributed on     1 nodes
     1001088 MiB available memory on the printing compute node when the environment starts
 
     Reading input from generated_inputs/adsorcion/pw-CH4-H22_Rot45_hollow_.in
Warning: card &CELL ignored

     Current dimensions of program PWSCF are:
     Max number of different atomic species (ntypx) = 10
     Max number of k-points (npk) =  40000
     Max angular momentum in pseudopotentials (lmaxx) =  4
     file Cr.pbe-spn-kjpaw_psl.1.0.0.UPF: wavefunction(s)  3S 3P 3D renormalized
     file N.pbe-n-kjpaw_psl.1.0.0.UPF: wavefunction(s)  2S renormalized
     file C.pbe-n-kjpaw_psl.1.0.0.UPF: wavefunction(s)  2S 2P renormalized
     file H.pbe-kjpaw_psl.1.0.0.UPF: wavefunction(s)  1S renormalized
 
     K-points division:     npool     =       4
     R & G space division:  proc/nbgrp/npool/nimage =      16
     Subspace diagonalization in iterative solution of the eigenvalue problem:
     one sub-group per band group will be used
     scalapack distributed-memory algorithm (size of sub-group:  4*  4 procs)

 
     Parallelization info
     --------------------
     sticks:   dense  smooth     PW     G-vecs:    dense   smooth      PW
     Min        1166     388    104               281408    54158    7640
     Max        1167     389    105               281417    54165    7647
     Sum       18661    6217   1675              4502593   866593  122299
 
     Using Slab Decomposition
 


     bravais-lattice index     =            0
     lattice parameter (alat)  =      17.9576  a.u.
     unit-cell volume          =   10952.5767 (a.u.)^3
     number of atoms/cell      =           77
     number of atomic types    =            4
     number of electrons       =       800.00
     number of Kohn-Sham states=          480
     kinetic-energy cutoff     =      70.0000  Ry
     charge density cutoff     =     840.0000  Ry
     scf convergence threshold =      1.0E-08
     mixing beta               =       0.2000
     number of iterations used =            8  plain     mixing
     energy convergence thresh.=      1.0E-04
     force convergence thresh. =      1.0E-03
     Exchange-correlation= SLA  PW   PBX  PBC
                           (   1   4   3   4   0   0   0)
     nstep                     =          200


     celldm(1)=  17.957575  celldm(2)=   0.000000  celldm(3)=   0.000000
     celldm(4)=   0.000000  celldm(5)=   0.000000  celldm(6)=   0.000000

     crystal axes: (cart. coord. in units of alat)
               a(1) = (   1.000000   0.000000   0.000000 )  
               a(2) = (  -0.500000   0.866025   0.000000 )  
               a(3) = (   0.000000   0.000000   2.183951 )  

     reciprocal axes: (cart. coord. in units 2 pi/alat)
               b(1) = (  1.000000  0.577351  0.000000 )  
               b(2) = (  0.000000  1.154701  0.000000 )  
               b(3) = (  0.000000  0.000000  0.457886 )  


     PseudoPot. # 1 for Cr read from file:
     pseudo/Cr.pbe-spn-kjpaw_psl.1.0.0.UPF
     MD5 check sum: 198f1a2427a48552563eee314eba32ba
     Pseudo is Projector augmented-wave + core cor, Zval = 14.0
     Generated using &quot;atomic&quot; code by A. Dal Corso  v.6.3
     Shape of augmentation charge: PSQ
     Using radial grid of 1183 points,  6 beta functions with: 
                l(1) =   0
                l(2) =   0
                l(3) =   1
                l(4) =   1
                l(5) =   2
                l(6) =   2
     Q(r) pseudized with 0 coefficients 


     PseudoPot. # 2 for N  read from file:
     pseudo/N.pbe-n-kjpaw_psl.1.0.0.UPF
     MD5 check sum: 14c48229446f9f2d411169a3abcbc3fa
     Pseudo is Projector augmented-wave + core cor, Zval =  5.0
     Generated using &quot;atomic&quot; code by A. Dal Corso  v.6.3
     Shape of augmentation charge: PSQ
     Using radial grid of 1085 points,  4 beta functions with: 
                l(1) =   0
                l(2) =   0
                l(3) =   1
                l(4) =   1
     Q(r) pseudized with 0 coefficients 


     PseudoPot. # 3 for C  read from file:
     pseudo/C.pbe-n-kjpaw_psl.1.0.0.UPF
     MD5 check sum: 5f16ad9a65e90284d1d834d4ab3b0f7d
     Pseudo is Projector augmented-wave + core cor, Zval =  4.0
     Generated using &quot;atomic&quot; code by A. Dal Corso  v.6.3
     Shape of augmentation charge: PSQ
     Using radial grid of 1073 points,  4 beta functions with: 
                l(1) =   0
                l(2) =   0
                l(3) =   1
                l(4) =   1
     Q(r) pseudized with 0 coefficients 


     PseudoPot. # 4 for H  read from file:
     pseudo/H.pbe-kjpaw_psl.1.0.0.UPF
     MD5 check sum: d81a744832360e4a8af0b0b5b123bc2a
     Pseudo is Projector augmented-wave, Zval =  1.0
     Generated using &quot;atomic&quot; code by A. Dal Corso  v.6.3MaX
     Shape of augmentation charge: PSQ
     Using radial grid of  929 points,  2 beta functions with: 
                l(1) =   0
                l(2) =   0
     Q(r) pseudized with 0 coefficients 


     atomic species   valence    mass     pseudopotential
     Cr               14.00    51.99610     Cr( 1.00)
     N                 5.00    14.00670     N ( 1.00)
     C                 4.00    12.01100     C ( 1.00)
     H                 1.00     1.00800     H ( 1.00)

     No symmetry found



   Cartesian axes

     site n.     atom                  positions (alat units)
         1        Cr     tau(   1) = (  -0.1681591   0.2912601   0.8673998  )
         2        Cr     tau(   2) = (   0.3363182   0.0000000   0.8673998  )
         3        Cr     tau(   3) = (   0.0818405   0.1417518   0.8673993  )
         4        Cr     tau(   4) = (   0.1684970   0.2918454   0.6425759  )
         5        Cr     tau(   5) = (  -0.0815030   0.1411673   0.6425759  )
         6        Cr     tau(   6) = (   0.1630059   0.0000000   0.6425759  )
         7        N      tau(   7) = (   0.0000000   0.0000000   0.5261641  )
         8        N      tau(   8) = (   0.2500000   0.1443376   0.7485579  )
         9        N      tau(   9) = (   0.0000000   0.2886752   0.7485579  )
        10        Cr     tau(  10) = (  -0.1730001   0.2996450   1.3148727  )
        11        Cr     tau(  11) = (   0.3460003   0.0000000   1.3148727  )
        12        Cr     tau(  12) = (   0.0770029   0.1333729   1.3148745  )
        13        Cr     tau(  13) = (   0.1677092   0.2904808   1.0968932  )
        14        Cr     tau(  14) = (  -0.0822901   0.1425306   1.0968938  )
        15        Cr     tau(  15) = (   0.1645802   0.0000000   1.0968938  )
        16        N      tau(  16) = (   0.0000000   0.0000000   0.9808490  )
        17        N      tau(  17) = (   0.2500004   0.1443372   1.2145625  )
        18        N      tau(  18) = (  -0.0000005   0.2886753   1.2145625  )
        19        Cr     tau(  19) = (  -0.4181595   0.7242736   0.8673993  )
        20        Cr     tau(  20) = (   0.0863184   0.4330126   0.8674001  )
        21        Cr     tau(  21) = (  -0.1681593   0.5747652   0.8674001  )
        22        Cr     tau(  22) = (  -0.0815030   0.7248581   0.6425759  )
        23        Cr     tau(  23) = (  -0.3315030   0.5741800   0.6425759  )
        24        Cr     tau(  24) = (  -0.0869941   0.4330127   0.6425759  )
        25        N      tau(  25) = (  -0.2500000   0.4330127   0.5261641  )
        26        N      tau(  26) = (   0.0000000   0.5773503   0.7485581  )
        27        N      tau(  27) = (  -0.2500000   0.7216878   0.7485579  )
        28        Cr     tau(  28) = (  -0.4229971   0.7326525   1.3148745  )
        29        Cr     tau(  29) = (   0.0959968   0.4330121   1.3148749  )
        30        Cr     tau(  30) = (  -0.1729989   0.5663837   1.3148749  )
        31        Cr     tau(  31) = (  -0.0822898   0.7234940   1.0968932  )
        32        Cr     tau(  32) = (  -0.3322908   0.5755446   1.0968932  )
        33        Cr     tau(  33) = (  -0.0854193   0.4330133   1.0968932  )
        34        N      tau(  34) = (  -0.2500001   0.4330128   0.9808490  )
        35        N      tau(  35) = (   0.0000000   0.5773503   1.2145635  )
        36        N      tau(  36) = (  -0.2499996   0.7216882   1.2145625  )
        37        Cr     tau(  37) = (   0.3318407   0.2912602   0.8674001  )
        38        Cr     tau(  38) = (   0.8363191   0.0000000   0.8673993  )
        39        Cr     tau(  39) = (   0.5818409   0.1417524   0.8674001  )
        40        Cr     tau(  40) = (   0.6684970   0.2918454   0.6425759  )
        41        Cr     tau(  41) = (   0.4184970   0.1411673   0.6425759  )
        42        Cr     tau(  42) = (   0.6630059   0.0000000   0.6425759  )
        43        N      tau(  43) = (   0.5000000   0.0000000   0.5261641  )
        44        N      tau(  44) = (   0.7500000   0.1443376   0.7485579  )
        45        N      tau(  45) = (   0.5000000   0.2886751   0.7485581  )
        46        Cr     tau(  46) = (   0.3270011   0.2996417   1.3148749  )
        47        Cr     tau(  47) = (   0.8459942   0.0000000   1.3148745  )
        48        Cr     tau(  48) = (   0.5770021   0.1333704   1.3148749  )
        49        Cr     tau(  49) = (   0.6677091   0.2904819   1.0968932  )
        50        Cr     tau(  50) = (   0.4177102   0.1425314   1.0968932  )
        51        Cr     tau(  51) = (   0.6645817   0.0000000   1.0968932  )
        52        N      tau(  52) = (   0.5000001   0.0000000   0.9808490  )
        53        N      tau(  53) = (   0.7500001   0.1443381   1.2145625  )
        54        N      tau(  54) = (   0.5000000   0.2886751   1.2145635  )
        55        Cr     tau(  55) = (   0.0818409   0.7242730   0.8674001  )
        56        Cr     tau(  56) = (   0.5863184   0.4330128   0.8674001  )
        57        Cr     tau(  57) = (   0.3318409   0.5747653   0.8673998  )
        58        Cr     tau(  58) = (   0.4184970   0.7248581   0.6425759  )
        59        Cr     tau(  59) = (   0.1684970   0.5741800   0.6425759  )
        60        Cr     tau(  60) = (   0.4130059   0.4330127   0.6425759  )
        61        N      tau(  61) = (   0.2500000   0.4330127   0.5261641  )
        62        N      tau(  62) = (   0.5000000   0.5773502   0.7485579  )
        63        N      tau(  63) = (   0.2500000   0.7216878   0.7485579  )
        64        Cr     tau(  64) = (   0.0770021   0.7326550   1.3148749  )
        65        Cr     tau(  65) = (   0.5959968   0.4330133   1.3148749  )
        66        Cr     tau(  66) = (   0.3269999   0.5663804   1.3148727  )
        67        Cr     tau(  67) = (   0.4177099   0.7234948   1.0968938  )
        68        Cr     tau(  68) = (   0.1677091   0.5755435   1.0968932  )
        69        Cr     tau(  69) = (   0.4145807   0.4330121   1.0968932  )
        70        N      tau(  70) = (   0.2499999   0.4330126   0.9808490  )
        71        N      tau(  71) = (   0.4999995   0.5773501   1.2145625  )
        72        N      tau(  72) = (   0.2500001   0.7216873   1.2145625  )
        73        C      tau(  73) = (   0.2499993   0.4330114   1.5915628  )
        74        H      tau(  74) = (   0.2499993   0.5266649   1.6577858  )
        75        H      tau(  75) = (   0.2499993   0.3393579   1.6577858  )
        76        H      tau(  76) = (   0.1563458   0.4330114   1.5253398  )
        77        H      tau(  77) = (   0.3436527   0.4330114   1.5253398  )

     --------------------------------------------
     DFT-D3 Dispersion Correction (3-body terms):
     --------------------------------------------
       Reference C6 values for interpolation: 

         atom   Coordination number   C6
         H          0.912             6.05
         H          0.000            15.18
         C          0.000            98.23
         C          0.987            86.49
         C          1.998            58.72
         C          2.999            51.56
         C          3.984            36.41
         N          0.000            50.54
         N          0.994            44.25
         N          2.014            39.35
         N          2.990            31.16
         Cr         0.000          1381.48
         Cr         1.827           571.38
         Cr        10.619           306.69

       Values used:

         atom   Coordination number  R0_AB[au]  C6      C8
         Cr        12.627            3.252    306.69  28303.74
         Cr        12.627            3.252    306.69  28303.74
         Cr        12.627            3.252    306.69  28303.74
         Cr        10.143            3.252    306.69  28303.74
         Cr        10.143            3.252    306.69  28303.74
         Cr        10.143            3.252    306.69  28303.74
         N          3.022            2.478     31.29    690.36
         N          6.023            2.478     31.16    687.49
         N          6.023            2.478     31.16    687.49
         Cr         9.071            3.252    306.69  28303.74
         Cr         9.071            3.252    306.69  28303.74
         Cr         9.073            3.252    306.69  28303.74
         Cr        12.748            3.252    306.69  28303.74
         Cr        12.748            3.252    306.69  28303.74
         Cr        12.748            3.252    306.69  28303.74
         N          6.047            2.478     31.16    687.49
         N          6.032            2.478     31.16    687.49
         N          6.032            2.478     31.16    687.49
         Cr        12.627            3.252    306.69  28303.74
         Cr        12.627            3.252    306.69  28303.74
         Cr        12.627            3.252    306.69  28303.74
         Cr        10.143            3.252    306.69  28303.74
         Cr        10.143            3.252    306.69  28303.74
         Cr        10.143            3.252    306.69  28303.74
         N          3.022            2.478     31.29    690.36
         N          6.023            2.478     31.16    687.49
         N          6.023            2.478     31.16    687.49
         Cr         9.071            3.252    306.69  28303.74
         Cr         9.318            3.252    306.69  28303.74
         Cr         9.071            3.252    306.69  28303.74
         Cr        12.748            3.252    306.69  28303.74
         Cr        12.748            3.252    306.69  28303.74
         Cr        12.748            3.252    306.69  28303.74
         N          6.047            2.478     31.16    687.49
         N          6.032            2.478     31.16    687.49
         N          6.032            2.478     31.16    687.49
         Cr        12.627            3.252    306.69  28303.74
         Cr        12.627            3.252    306.69  28303.74
         Cr        12.627            3.252    306.69  28303.74
         Cr        10.143            3.252    306.69  28303.74
         Cr        10.143            3.252    306.69  28303.74
         Cr        10.143            3.252    306.69  28303.74
         N          3.022            2.478     31.29    690.36
         N          6.023            2.478     31.16    687.49
         N          6.023            2.478     31.16    687.49
         Cr         9.167            3.252    306.69  28303.74
         Cr         9.071            3.252    306.69  28303.74
         Cr         9.071            3.252    306.69  28303.74
         Cr        12.748            3.252    306.69  28303.74
         Cr        12.748            3.252    306.69  28303.74
         Cr        12.748            3.252    306.69  28303.74
         N          6.047            2.478     31.16    687.49
         N          6.032            2.478     31.16    687.49
         N          6.032            2.478     31.16    687.49
         Cr        12.627            3.252    306.69  28303.74
         Cr        12.627            3.252    306.69  28303.74
         Cr        12.627            3.252    306.69  28303.74
         Cr        10.143            3.252    306.69  28303.74
         Cr        10.143            3.252    306.69  28303.74
         Cr        10.143            3.252    306.69  28303.74
         N          3.022            2.478     31.29    690.36
         N          6.023            2.478     31.16    687.49
         N          6.023            2.478     31.16    687.49
         Cr         9.073            3.252    306.69  28303.74
         Cr         9.074            3.252    306.69  28303.74
         Cr         9.167            3.252    306.69  28303.74
         Cr        12.748            3.252    306.69  28303.74
         Cr        12.748            3.252    306.69  28303.74
         Cr        12.748            3.252    306.69  28303.74
         N          6.047            2.478     31.16    687.49
         N          6.032            2.478     31.16    687.49
         N          6.032            2.478     31.16    687.49
         C          4.143            2.750     36.49   1055.40
         H          0.998            2.062      6.18     74.75
         H          0.998            2.062      6.18     74.75
         H          1.198            2.062      6.08     73.54
         H          1.077            2.062      6.13     74.06

         Molecular C6 ( Ry / a.u.^6 ) =    974427.45


     number of k points=    10  Methfessel-Paxton smearing, width (Ry)=  0.0200
                       cart. coord. in units 2pi/alat
        k(    1) = (   0.0000000   0.0000000   0.0000000), wk =   0.1250000
        k(    2) = (   0.0000000   0.2886753   0.0000000), wk =   0.2500000
        k(    3) = (   0.0000000  -0.5773505   0.0000000), wk =   0.1250000
        k(    4) = (   0.2500000   0.1443376   0.0000000), wk =   0.2500000
        k(    5) = (   0.2500000   0.4330129   0.0000000), wk =   0.2500000
        k(    6) = (   0.2500000  -0.4330129   0.0000000), wk =   0.2500000
        k(    7) = (   0.2500000  -0.1443376   0.0000000), wk =   0.2500000
        k(    8) = (  -0.5000000  -0.2886753   0.0000000), wk =   0.1250000
        k(    9) = (  -0.5000000   0.0000000   0.0000000), wk =   0.2500000
        k(   10) = (  -0.5000000  -0.8660258   0.0000000), wk =   0.1250000

     Dense  grid:  4502593 G-vectors     FFT dimensions: ( 180, 180, 375)

     Smooth grid:   866593 G-vectors     FFT dimensions: (  96,  96, 216)

     Estimated max dynamical RAM per process >     867.27 MB

     Estimated total dynamical RAM >      50.98 GB

     Initial potential from superposition of free atoms

     starting charge     799.9627, renormalised to     800.0000

     negative rho (up, down):  3.836E-04 0.000E+00
     Starting wfcs are  584 randomized atomic wfcs
     Checking if some PAW data can be deallocated... 

     total cpu time spent up to now is       19.8 secs

     Self-consistent Calculation

     iteration #  1     ecut=    70.00 Ry     beta= 0.20
     Davidson diagonalization with overlap
     ethr =  1.00E-02,  avg # of iterations =  2.7

     negative rho (up, down):  1.511E-04 0.000E+00

     total cpu time spent up to now is       66.5 secs

     total energy              =  -12610.60655120 Ry
     estimated scf accuracy    <      29.22812591 Ry

     iteration #  2     ecut=    70.00 Ry     beta= 0.20
     Davidson diagonalization with overlap
     ethr =  3.65E-03,  avg # of iterations =  6.2

     negative rho (up, down):  4.541E-04 0.000E+00

     total cpu time spent up to now is      122.4 secs

     total energy              =  -12600.15534140 Ry
     estimated scf accuracy    <     677.20263702 Ry

     iteration #  3     ecut=    70.00 Ry     beta= 0.20
     Davidson diagonalization with overlap
     ethr =  3.65E-03,  avg # of iterations =  3.0

     negative rho (up, down):  6.669E-04 0.000E+00

     total cpu time spent up to now is      164.8 secs

     total energy              =  -12608.78267499 Ry
     estimated scf accuracy    <     493.47574281 Ry

     iteration #  4     ecut=    70.00 Ry     beta= 0.20
     Davidson diagonalization with overlap
     ethr =  3.65E-03,  avg # of iterations =  2.0

     negative rho (up, down):  3.070E-04 0.000E+00

     total cpu time spent up to now is      205.7 secs

     total energy              =  -12614.94035594 Ry
     estimated scf accuracy    <      83.13626991 Ry

     iteration #  5     ecut=    70.00 Ry     beta= 0.20
     Davidson diagonalization with overlap
     ethr =  3.65E-03,  avg # of iterations =  1.2

     negative rho (up, down):  4.024E-04 0.000E+00

     total cpu time spent up to now is      243.7 secs

     total energy              =  -12615.64972320 Ry
     estimated scf accuracy    <      12.56356636 Ry

     iteration #  6     ecut=    70.00 Ry     beta= 0.20
     Davidson diagonalization with overlap
     ethr =  1.57E-03,  avg # of iterations =  2.0

     negative rho (up, down):  4.751E-04 0.000E+00

     total cpu time spent up to now is      284.6 secs

     total energy              =  -12616.18036878 Ry
     estimated scf accuracy    <       3.59263103 Ry

     iteration #  7     ecut=    70.00 Ry     beta= 0.20
     Davidson diagonalization with overlap
     ethr =  4.49E-04,  avg # of iterations = 12.9

     negative rho (up, down):  4.826E-04 0.000E+00

     total cpu time spent up to now is      336.2 secs

     total energy              =  -12616.33580303 Ry
     estimated scf accuracy    <       2.03646404 Ry

     iteration #  8     ecut=    70.00 Ry     beta= 0.20
     Davidson diagonalization with overlap
     ethr =  2.55E-04,  avg # of iterations =  2.0

     negative rho (up, down):  5.031E-04 0.000E+00

     total cpu time spent up to now is      377.4 secs

     total energy              =  -12616.35919840 Ry
     estimated scf accuracy    <       0.84400346 Ry

     iteration #  9     ecut=    70.00 Ry     beta= 0.20
     Davidson diagonalization with overlap
     c_bands:  1 eigenvalues not converged
     c_bands:  1 eigenvalues not converged
     ethr =  1.06E-04,  avg # of iterations =  9.7

     negative rho (up, down):  4.023E-04 0.000E+00

     total cpu time spent up to now is      429.0 secs

     total energy              =  -12616.35828221 Ry
     estimated scf accuracy    <       0.65038649 Ry

     iteration # 10     ecut=    70.00 Ry     beta= 0.20
     Davidson diagonalization with overlap
     ethr =  8.13E-05,  avg # of iterations =  3.8

     negative rho (up, down):  3.715E-04 0.000E+00

     total cpu time spent up to now is      472.6 secs

     total energy              =  -12616.35677979 Ry
     estimated scf accuracy    <       0.44015271 Ry

     iteration # 11     ecut=    70.00 Ry     beta= 0.20
     Davidson diagonalization with overlap
     ethr =  5.50E-05,  avg # of iterations =  8.9

     negative rho (up, down):  3.927E-04 0.000E+00

     total cpu time spent up to now is      527.1 secs

     total energy              =  -12616.36778884 Ry
     estimated scf accuracy    <       0.26162794 Ry

     iteration # 12     ecut=    70.00 Ry     beta= 0.20
     Davidson diagonalization with overlap
     ethr =  3.27E-05,  avg # of iterations = 11.7

     negative rho (up, down):  2.818E-04 0.000E+00

     total cpu time spent up to now is      579.4 secs

     total energy              =  -12616.36249605 Ry
     estimated scf accuracy    <       0.51403878 Ry

     iteration # 13     ecut=    70.00 Ry     beta= 0.20
     Davidson diagonalization with overlap
     ethr =  3.27E-05,  avg # of iterations =  1.2

     negative rho (up, down):  2.438E-04 0.000E+00

     total cpu time spent up to now is      617.5 secs

     total energy              =  -12616.37005752 Ry
     estimated scf accuracy    <       0.13589295 Ry

     iteration # 14     ecut=    70.00 Ry     beta= 0.20
     Davidson diagonalization with overlap
     ethr =  1.70E-05,  avg # of iterations =  4.5

     negative rho (up, down):  2.097E-04 0.000E+00

     total cpu time spent up to now is      661.3 secs

     total energy              =  -12616.37132223 Ry
     estimated scf accuracy    <       0.07783056 Ry

     iteration # 15     ecut=    70.00 Ry     beta= 0.20
     Davidson diagonalization with overlap
     ethr =  9.73E-06,  avg # of iterations =  5.8

     negative rho (up, down):  1.958E-04 0.000E+00

     total cpu time spent up to now is      707.0 secs

     total energy              =  -12616.37058536 Ry
     estimated scf accuracy    <       0.24244219 Ry

     iteration # 16     ecut=    70.00 Ry     beta= 0.20
     Davidson diagonalization with overlap
     ethr =  9.73E-06,  avg # of iterations =  1.3

     negative rho (up, down):  1.933E-04 0.000E+00

     total cpu time spent up to now is      745.4 secs

     total energy              =  -12616.37346461 Ry
     estimated scf accuracy    <       0.02481078 Ry

     iteration # 17     ecut=    70.00 Ry     beta= 0.20
     Davidson diagonalization with overlap
     ethr =  3.10E-06,  avg # of iterations = 14.0

     negative rho (up, down):  1.949E-04 0.000E+00

     total cpu time spent up to now is      799.0 secs

     total energy              =  -12616.37329380 Ry
     estimated scf accuracy    <       0.04090803 Ry

     iteration # 18     ecut=    70.00 Ry     beta= 0.20
     Davidson diagonalization with overlap
     ethr =  3.10E-06,  avg # of iterations =  3.3

     negative rho (up, down):  1.975E-04 0.000E+00

     total cpu time spent up to now is      841.1 secs

     total energy              =  -12616.37388267 Ry
     estimated scf accuracy    <       0.03859622 Ry

     iteration # 19     ecut=    70.00 Ry     beta= 0.20
     Davidson diagonalization with overlap
     ethr =  3.10E-06,  avg # of iterations =  1.2

     negative rho (up, down):  1.995E-04 0.000E+00

     total cpu time spent up to now is      879.2 secs

     total energy              =  -12616.37483401 Ry
     estimated scf accuracy    <       0.00723819 Ry

     iteration # 20     ecut=    70.00 Ry     beta= 0.20
     Davidson diagonalization with overlap
     ethr =  9.05E-07,  avg # of iterations =  1.7

     negative rho (up, down):  2.016E-04 0.000E+00

     total cpu time spent up to now is      919.5 secs

     total energy              =  -12616.37497473 Ry
     estimated scf accuracy    <       0.00400787 Ry

     iteration # 21     ecut=    70.00 Ry     beta= 0.20
     Davidson diagonalization with overlap
     ethr =  5.01E-07,  avg # of iterations =  1.7

     negative rho (up, down):  2.053E-04 0.000E+00

     total cpu time spent up to now is      959.7 secs

     total energy              =  -12616.37506213 Ry
     estimated scf accuracy    <       0.00450949 Ry

     iteration # 22     ecut=    70.00 Ry     beta= 0.20
     Davidson diagonalization with overlap
     ethr =  5.01E-07,  avg # of iterations =  1.2

     negative rho (up, down):  2.104E-04 0.000E+00

     total cpu time spent up to now is      998.3 secs

     total energy              =  -12616.37519714 Ry
     estimated scf accuracy    <       0.00360699 Ry

     iteration # 23     ecut=    70.00 Ry     beta= 0.20
     Davidson diagonalization with overlap
     ethr =  4.51E-07,  avg # of iterations =  1.0

     negative rho (up, down):  2.113E-04 0.000E+00

     total cpu time spent up to now is     1034.2 secs

     total energy              =  -12616.37531206 Ry
     estimated scf accuracy    <       0.00052256 Ry

     iteration # 24     ecut=    70.00 Ry     beta= 0.20
     Davidson diagonalization with overlap
     ethr =  6.53E-08,  avg # of iterations =  5.6

     negative rho (up, down):  2.112E-04 0.000E+00

     total cpu time spent up to now is     1078.9 secs

     total energy              =  -12616.37532121 Ry
     estimated scf accuracy    <       0.00133755 Ry

     iteration # 25     ecut=    70.00 Ry     beta= 0.20
     Davidson diagonalization with overlap
     ethr =  6.53E-08,  avg # of iterations =  1.1

     negative rho (up, down):  2.118E-04 0.000E+00

     total cpu time spent up to now is     1116.1 secs

     total energy              =  -12616.37535144 Ry
     estimated scf accuracy    <       0.00044382 Ry

     iteration # 26     ecut=    70.00 Ry     beta= 0.20
     Davidson diagonalization with overlap
     ethr =  5.55E-08,  avg # of iterations =  1.6

     negative rho (up, down):  2.123E-04 0.000E+00

     total cpu time spent up to now is     1155.0 secs

     total energy              =  -12616.37536311 Ry
     estimated scf accuracy    <       0.00020143 Ry

     iteration # 27     ecut=    70.00 Ry     beta= 0.20
     Davidson diagonalization with overlap
     ethr =  2.52E-08,  avg # of iterations =  2.0

     negative rho (up, down):  2.111E-04 0.000E+00

     total cpu time spent up to now is     1195.9 secs

     total energy              =  -12616.37535930 Ry
     estimated scf accuracy    <       0.00081940 Ry

     iteration # 28     ecut=    70.00 Ry     beta= 0.20
     Davidson diagonalization with overlap
     ethr =  2.52E-08,  avg # of iterations =  1.6

     negative rho (up, down):  2.114E-04 0.000E+00

     total cpu time spent up to now is     1234.6 secs

     total energy              =  -12616.37536346 Ry
     estimated scf accuracy    <       0.00045707 Ry

     iteration # 29     ecut=    70.00 Ry     beta= 0.20
     Davidson diagonalization with overlap
     ethr =  2.52E-08,  avg # of iterations =  1.1

     negative rho (up, down):  2.114E-04 0.000E+00

     total cpu time spent up to now is     1271.4 secs

     total energy              =  -12616.37537320 Ry
     estimated scf accuracy    <       0.00015761 Ry

     iteration # 30     ecut=    70.00 Ry     beta= 0.20
     Davidson diagonalization with overlap
     ethr =  1.97E-08,  avg # of iterations =  1.0

     negative rho (up, down):  2.112E-04 0.000E+00

     total cpu time spent up to now is     1307.6 secs

     total energy              =  -12616.37537640 Ry
     estimated scf accuracy    <       0.00003730 Ry

     iteration # 31     ecut=    70.00 Ry     beta= 0.20
     Davidson diagonalization with overlap
     ethr =  4.66E-09,  avg # of iterations =  4.9

     negative rho (up, down):  2.108E-04 0.000E+00

     total cpu time spent up to now is     1350.9 secs

     total energy              =  -12616.37537594 Ry
     estimated scf accuracy    <       0.00004121 Ry

     iteration # 32     ecut=    70.00 Ry     beta= 0.20
     Davidson diagonalization with overlap
     ethr =  4.66E-09,  avg # of iterations =  1.0

     negative rho (up, down):  2.106E-04 0.000E+00

     total cpu time spent up to now is     1387.0 secs

     total energy              =  -12616.37537617 Ry
     estimated scf accuracy    <       0.00000957 Ry

     iteration # 33     ecut=    70.00 Ry     beta= 0.20
     Davidson diagonalization with overlap
     ethr =  1.20E-09,  avg # of iterations =  5.8

     negative rho (up, down):  2.100E-04 0.000E+00

     total cpu time spent up to now is     1431.2 secs

     total energy              =  -12616.37537500 Ry
     estimated scf accuracy    <       0.00002196 Ry

     iteration # 34     ecut=    70.00 Ry     beta= 0.20
     Davidson diagonalization with overlap
     ethr =  1.20E-09,  avg # of iterations =  2.0

     negative rho (up, down):  2.098E-04 0.000E+00

     total cpu time spent up to now is     1472.2 secs

     total energy              =  -12616.37537484 Ry
     estimated scf accuracy    <       0.00002280 Ry

     iteration # 35     ecut=    70.00 Ry     beta= 0.20
     Davidson diagonalization with overlap
     ethr =  1.20E-09,  avg # of iterations =  1.0

     negative rho (up, down):  2.098E-04 0.000E+00

     total cpu time spent up to now is     1508.2 secs

     total energy              =  -12616.37537538 Ry
     estimated scf accuracy    <       0.00000285 Ry

     iteration # 36     ecut=    70.00 Ry     beta= 0.20
     Davidson diagonalization with overlap
     ethr =  3.57E-10,  avg # of iterations =  2.3

     negative rho (up, down):  2.097E-04 0.000E+00

     total cpu time spent up to now is     1549.8 secs

     total energy              =  -12616.37537537 Ry
     estimated scf accuracy    <       0.00000152 Ry

     iteration # 37     ecut=    70.00 Ry     beta= 0.20
     Davidson diagonalization with overlap
     ethr =  1.90E-10,  avg # of iterations =  2.7

     negative rho (up, down):  2.097E-04 0.000E+00

     total cpu time spent up to now is     1591.4 secs

     total energy              =  -12616.37537525 Ry
     estimated scf accuracy    <       0.00000483 Ry

     iteration # 38     ecut=    70.00 Ry     beta= 0.20
     Davidson diagonalization with overlap
     ethr =  1.90E-10,  avg # of iterations =  1.9

     negative rho (up, down):  2.096E-04 0.000E+00

     total cpu time spent up to now is     1632.0 secs

     total energy              =  -12616.37537520 Ry
     estimated scf accuracy    <       0.00000981 Ry

     iteration # 39     ecut=    70.00 Ry     beta= 0.20
     Davidson diagonalization with overlap
     ethr =  1.90E-10,  avg # of iterations =  1.4

     negative rho (up, down):  2.095E-04 0.000E+00

     total cpu time spent up to now is     1671.7 secs

     total energy              =  -12616.37537524 Ry
     estimated scf accuracy    <       0.00000125 Ry

     iteration # 40     ecut=    70.00 Ry     beta= 0.20
     Davidson diagonalization with overlap
     ethr =  1.57E-10,  avg # of iterations =  2.0

     negative rho (up, down):  2.094E-04 0.000E+00

     total cpu time spent up to now is     1712.5 secs

     total energy              =  -12616.37537515 Ry
     estimated scf accuracy    <       0.00000601 Ry

     iteration # 41     ecut=    70.00 Ry     beta= 0.20
     Davidson diagonalization with overlap
     ethr =  1.57E-10,  avg # of iterations =  1.0

     negative rho (up, down):  2.094E-04 0.000E+00

     total cpu time spent up to now is     1748.6 secs

     total energy              =  -12616.37537525 Ry
     estimated scf accuracy    <       0.00000109 Ry

     iteration # 42     ecut=    70.00 Ry     beta= 0.20
     Davidson diagonalization with overlap
     ethr =  1.36E-10,  avg # of iterations =  1.0

     negative rho (up, down):  2.094E-04 0.000E+00

     total cpu time spent up to now is     1784.7 secs

     total energy              =  -12616.37537527 Ry
     estimated scf accuracy    <       0.00000026 Ry

     iteration # 43     ecut=    70.00 Ry     beta= 0.20
     Davidson diagonalization with overlap
     ethr =  3.20E-11,  avg # of iterations =  2.0

     negative rho (up, down):  2.094E-04 0.000E+00

     total cpu time spent up to now is     1825.5 secs

     total energy              =  -12616.37537526 Ry
     estimated scf accuracy    <       0.00000022 Ry

     iteration # 44     ecut=    70.00 Ry     beta= 0.20
     Davidson diagonalization with overlap
     ethr =  2.74E-11,  avg # of iterations =  2.0

     negative rho (up, down):  2.093E-04 0.000E+00

     total cpu time spent up to now is     1866.5 secs

     total energy              =  -12616.37537524 Ry
     estimated scf accuracy    <       0.00000062 Ry

     iteration # 45     ecut=    70.00 Ry     beta= 0.20
     Davidson diagonalization with overlap
     ethr =  2.74E-11,  avg # of iterations =  1.0

     negative rho (up, down):  2.093E-04 0.000E+00

     total cpu time spent up to now is     1902.4 secs

     total energy              =  -12616.37537525 Ry
     estimated scf accuracy    <       0.00000009 Ry

     iteration # 46     ecut=    70.00 Ry     beta= 0.20
     Davidson diagonalization with overlap
     ethr =  1.14E-11,  avg # of iterations =  2.0

     negative rho (up, down):  2.092E-04 0.000E+00

     total cpu time spent up to now is     1943.3 secs

     total energy              =  -12616.37537525 Ry
     estimated scf accuracy    <       0.00000014 Ry

     iteration # 47     ecut=    70.00 Ry     beta= 0.20
     Davidson diagonalization with overlap
     ethr =  1.14E-11,  avg # of iterations =  1.0

     negative rho (up, down):  2.092E-04 0.000E+00

     total cpu time spent up to now is     1979.4 secs

     total energy              =  -12616.37537525 Ry
     estimated scf accuracy    <       0.00000005 Ry

     iteration # 48     ecut=    70.00 Ry     beta= 0.20
     Davidson diagonalization with overlap
     ethr =  6.06E-12,  avg # of iterations =  2.0

     negative rho (up, down):  2.092E-04 0.000E+00

     total cpu time spent up to now is     2020.4 secs

     total energy              =  -12616.37537525 Ry
     estimated scf accuracy    <       0.00000014 Ry

     iteration # 49     ecut=    70.00 Ry     beta= 0.20
     Davidson diagonalization with overlap
     ethr =  6.06E-12,  avg # of iterations =  1.0

     negative rho (up, down):  2.092E-04 0.000E+00

     total cpu time spent up to now is     2056.5 secs

     total energy              =  -12616.37537525 Ry
     estimated scf accuracy    <       0.00000002 Ry

     iteration # 50     ecut=    70.00 Ry     beta= 0.20
     Davidson diagonalization with overlap
     ethr =  1.96E-12,  avg # of iterations =  3.9

     negative rho (up, down):  2.092E-04 0.000E+00

     total cpu time spent up to now is     2099.1 secs

     total energy              =  -12616.37537525 Ry
     estimated scf accuracy    <       0.00000002 Ry

     iteration # 51     ecut=    70.00 Ry     beta= 0.20
     Davidson diagonalization with overlap
     ethr =  1.96E-12,  avg # of iterations =  1.1

     negative rho (up, down):  2.092E-04 0.000E+00

     total cpu time spent up to now is     2136.3 secs

     total energy              =  -12616.37537525 Ry
     estimated scf accuracy    <       0.00000001 Ry

     iteration # 52     ecut=    70.00 Ry     beta= 0.20
     Davidson diagonalization with overlap
     ethr =  1.32E-12,  avg # of iterations =  2.1

     negative rho (up, down):  2.092E-04 0.000E+00

     total cpu time spent up to now is     2177.6 secs

     total energy              =  -12616.37537525 Ry
     estimated scf accuracy    <       0.00000004 Ry

     iteration # 53     ecut=    70.00 Ry     beta= 0.20
     Davidson diagonalization with overlap
     ethr =  1.32E-12,  avg # of iterations =  1.1

     negative rho (up, down):  2.092E-04 0.000E+00

     total cpu time spent up to now is     2215.0 secs

     total energy              =  -12616.37537525 Ry
     estimated scf accuracy    <       0.00000002 Ry

     iteration # 54     ecut=    70.00 Ry     beta= 0.20
     Davidson diagonalization with overlap
     ethr =  1.32E-12,  avg # of iterations =  1.4

     negative rho (up, down):  2.092E-04 0.000E+00

     total cpu time spent up to now is     2253.9 secs

     End of self-consistent calculation

          k = 0.0000 0.0000 0.0000 (108303 PWs)   bands (ev):

   -67.0000 -66.9598 -66.9592 -66.9590 -66.9516 -66.9513 -66.9495 -66.9494
   -66.9254 -66.9246 -66.9245 -66.9222 -66.9221 -66.9216 -66.9181 -66.9176
   -66.9156 -66.9136 -66.9135 -66.9055 -66.9037 -66.9032 -66.9005 -66.8997
   -66.7457 -66.7164 -66.7163 -66.7162 -66.7099 -66.7090 -66.7089 -66.6928
   -66.6928 -66.6919 -66.6861 -66.6861 -66.6678 -66.6316 -66.6260 -66.6191
   -66.6186 -66.6096 -66.5824 -66.5812 -66.5809 -66.5780 -66.5693 -66.5683
   -38.8042 -38.7775 -38.7773 -38.7735 -38.6752 -38.6746 -38.6743 -38.6356
   -38.6353 -38.6195 -38.6192 -38.6170 -38.5956 -38.5655 -38.5653 -38.5595
   -38.5410 -38.5409 -38.5393 -38.5171 -38.5096 -38.5090 -38.4770 -38.4766
   -38.4728 -38.4726 -38.4714 -38.4645 -38.3899 -38.3780 -38.3741 -38.3736
   -38.3707 -38.3677 -38.3674 -38.3671 -38.3630 -38.3629 -38.3274 -38.3274
   -38.3269 -38.3109 -38.3105 -38.3100 -38.3003 -38.2682 -38.2671 -38.2653
   -38.2650 -38.2628 -38.2625 -38.2604 -38.2603 -38.2564 -38.2419 -38.2419
   -38.2374 -38.2369 -38.2328 -38.2316 -38.2293 -38.2285 -38.2283 -38.2277
   -38.2187 -38.2147 -38.2147 -38.2102 -38.2018 -38.2009 -38.1981 -38.1668
   -38.1617 -38.1573 -38.1487 -38.1468 -38.1442 -38.1407 -38.1404 -38.1353
   -38.1280 -38.1188 -38.1180 -38.1123 -38.0990 -38.0958 -38.0928 -38.0911
   -38.0908 -38.0770 -38.0769 -38.0543 -38.0532 -38.0497 -38.0482 -38.0441
   -38.0391 -38.0383 -38.0308 -38.0308 -38.0272 -38.0026 -38.0018 -38.0018
   -37.9694 -37.9691 -37.9614 -37.9613 -37.9594 -37.9535 -37.9533 -37.9463
   -37.9433 -37.9433 -37.9406 -37.9270 -37.9255 -37.9164 -37.9162 -37.9101
   -37.9092 -37.8982 -37.8981 -37.8979 -37.8644 -37.8637 -37.8636 -37.8628
   -37.8627 -37.8623 -37.8339 -37.8339 -37.8310 -37.8137 -37.8049 -37.8041
   -37.7036 -37.6984 -37.6900 -37.6740 -37.6724 -37.6709 -37.6515 -37.6510
   -12.5008 -12.0310 -11.7984 -11.7980 -11.7969 -11.6520 -11.6513 -11.6449
   -11.6259 -11.6256 -11.6215 -11.3438 -11.3431 -11.3384 -11.2661 -11.2339
   -11.2334 -11.2296 -11.0026 -10.9797  -8.8257  -8.7093  -8.7091  -8.7089
    -8.6515  -3.0043  -3.0022  -3.0010  -2.7893  -2.7604  -2.7593  -2.5649
    -2.5647  -2.5644  -2.5595  -2.5401  -2.5370  -2.4729  -2.4199  -2.4041
    -2.4039  -2.3243  -2.3168  -2.3167  -2.2406  -2.2369  -1.7902  -1.7579
    -1.7578  -1.6153  -1.5811  -1.5785  -1.5457  -1.5223  -1.4963  -1.4833
    -1.4422  -1.4253  -1.4121  -1.4048  -1.3383  -1.3382  -1.3359  -1.2865
    -1.2841  -1.2789  -1.2272  -1.2263  -1.2063  -1.0879  -1.0867  -0.9832
    -0.9522  -0.9180  -0.9068  -0.9023  -0.8932  -0.8733  -0.8529  -0.8247
    -0.8245  -0.8210  -0.6852  -0.6797  -0.6754  -0.4363  -0.4327  -0.4327
     0.6566   1.2266   1.2270   1.2271   1.4696   1.4698   1.4698   1.5441
     1.5635   1.5635   1.5837   1.5849   1.5851   1.6061   1.6061   1.6063
     1.7742   1.7810   1.7816   2.0668   2.0673   2.0677   2.1921   2.1926
     2.1967   2.2246   2.3394   2.3519   2.3526   2.4385   2.4386   2.4462
     2.4537   2.4540   2.4542   2.5160   2.5185   2.5185   2.5347   2.6962
     2.6964   2.7970   2.8022   2.8034   3.1562   3.1576   3.1980   3.2886
     3.2888   3.3496   3.3519   3.3532   3.3659   3.3661   3.3700   3.4838
     3.4857   3.4994   3.5252   3.5534   3.5546   3.6477   3.6699   3.6704
     3.6864   3.6947   3.6953   3.7277   3.7283   3.7330   3.7428   3.8211
     3.8265   3.8325   3.9821   3.9844   4.0363   4.1349   4.1386   4.1478
     4.1602   4.1607   4.2873   4.2950   4.3030   4.3133   4.3499   4.3597
     4.3620   4.4219   4.4226   4.4226   4.4362   4.4949   4.4995   4.5000
     4.5529   4.5532   4.6362   4.7079   4.7088   4.7416   4.7472   4.7914
     4.7915   4.8405   4.8409   4.8686   4.8810   4.8907   4.8986   4.9572
     4.9589   4.9756   5.0206   5.0208   5.1052   5.1243   5.1378   5.1396
     5.2194   5.2239   5.3362   5.3952   5.3956   5.3974   5.5046   5.5057
     5.5407   5.5532   5.5567   5.5702   5.5709   5.5733   5.6896   5.6979
     5.7025   5.7090   5.7134   5.7176   5.7310   5.7312   5.7581   5.7611
     5.8076   5.8461   5.8586   5.8642   5.8702   5.8738   5.8739   5.9053
     5.9085   5.9107   5.9861   5.9904   5.9991   6.0121   6.0132   6.0148
     6.0155   6.0304   6.0724   6.0731   6.0742   6.1078   6.1081   6.1329
     6.2067   6.2071   6.2186   6.2193   6.2195   6.2653   6.2653   6.2718
     6.2766   6.2774   6.3204   6.3221   6.3231   6.3676   6.3689   6.4019
     6.5354   6.5757   6.5764   6.5777   6.6318   6.6325   6.6536   6.6664
     6.6686   6.7213   6.7239   6.7246   6.7302   6.7306   6.7734   6.8361

          k = 0.0000 0.2887 0.0000 (108355 PWs)   bands (ev):

   -66.9966 -66.9724 -66.9632 -66.9626 -66.9469 -66.9453 -66.9442 -66.9382
   -66.9305 -66.9278 -66.9273 -66.9249 -66.9236 -66.9232 -66.9166 -66.9156
   -66.9145 -66.9129 -66.9099 -66.9062 -66.9043 -66.9035 -66.9009 -66.9003
   -66.7430 -66.7253 -66.7188 -66.7183 -66.7057 -66.7050 -66.7011 -66.6945
   -66.6940 -66.6916 -66.6876 -66.6871 -66.6673 -66.6331 -66.6250 -66.6205
   -66.6190 -66.6082 -66.5815 -66.5807 -66.5795 -66.5784 -66.5708 -66.5687
   -38.8009 -38.7811 -38.7733 -38.7706 -38.6705 -38.6699 -38.6684 -38.6434
   -38.6343 -38.6258 -38.6256 -38.6221 -38.5971 -38.5815 -38.5687 -38.5639
   -38.5377 -38.5341 -38.5255 -38.5188 -38.5111 -38.5101 -38.5050 -38.4822
   -38.4671 -38.4654 -38.4647 -38.4430 -38.3840 -38.3822 -38.3775 -38.3722
   -38.3697 -38.3634 -38.3616 -38.3611 -38.3563 -38.3490 -38.3323 -38.3294
   -38.3275 -38.3201 -38.3136 -38.3126 -38.2968 -38.2826 -38.2795 -38.2681
   -38.2660 -38.2645 -38.2641 -38.2640 -38.2599 -38.2589 -38.2511 -38.2474
   -38.2449 -38.2437 -38.2382 -38.2325 -38.2318 -38.2270 -38.2195 -38.2149
   -38.2137 -38.2109 -38.2097 -38.1978 -38.1928 -38.1920 -38.1899 -38.1698
   -38.1653 -38.1582 -38.1535 -38.1528 -38.1504 -38.1403 -38.1398 -38.1311
   -38.1270 -38.1223 -38.1216 -38.1080 -38.1031 -38.1013 -38.0964 -38.0905
   -38.0833 -38.0808 -38.0699 -38.0582 -38.0532 -38.0503 -38.0472 -38.0405
   -38.0379 -38.0309 -38.0276 -38.0233 -38.0228 -38.0090 -38.0070 -38.0041
   -37.9731 -37.9701 -37.9662 -37.9593 -37.9588 -37.9569 -37.9488 -37.9471
   -37.9428 -37.9402 -37.9381 -37.9240 -37.9228 -37.9167 -37.9152 -37.9111
   -37.9104 -37.9006 -37.9004 -37.8966 -37.8702 -37.8663 -37.8661 -37.8577
   -37.8570 -37.8542 -37.8440 -37.8365 -37.8290 -37.8130 -37.8058 -37.8050
   -37.7003 -37.6966 -37.6874 -37.6760 -37.6716 -37.6683 -37.6591 -37.6526
   -12.4372 -12.0099 -11.9887 -11.8537 -11.8525 -11.7217 -11.6357 -11.6325
   -11.5603 -11.5581 -11.4796 -11.3347 -11.3318 -11.2851 -11.2659 -11.2641
   -11.2539 -11.2003 -11.0357 -11.0145  -8.8258  -8.7107  -8.7107  -8.6993
    -8.6586  -2.9733  -2.9698  -2.9295  -2.8167  -2.7462  -2.7342  -2.7134
    -2.7061  -2.7031  -2.5909  -2.5863  -2.4445  -2.3991  -2.3569  -2.3465
    -2.3463  -2.2893  -2.2387  -2.2105  -2.2028  -2.1590  -1.9634  -1.7846
    -1.7661  -1.7349  -1.6710  -1.6410  -1.5883  -1.5287  -1.4945  -1.4735
    -1.4721  -1.4218  -1.4022  -1.3817  -1.3561  -1.3540  -1.3206  -1.3083
    -1.2895  -1.2533  -1.2398  -1.2352  -1.1228  -1.0796  -1.0611  -1.0145
    -0.9710  -0.9177  -0.9038  -0.8852  -0.8776  -0.8334  -0.8323  -0.8262
    -0.8034  -0.7748  -0.7215  -0.6522  -0.6493  -0.5051  -0.4611  -0.4591
     0.7780   1.1882   1.2199   1.2203   1.4592   1.4594   1.4686   1.4716
     1.5356   1.5543   1.5552   1.5742   1.6350   1.6737   1.6760   1.6882
     1.7883   1.7934   1.8358   2.0750   2.0760   2.1191   2.1674   2.1714
     2.2242   2.2761   2.3093   2.3133   2.3365   2.4345   2.4371   2.4527
     2.4630   2.4652   2.5290   2.5579   2.5599   2.5775   2.5993   2.6285
     2.7317   2.8104   2.8120   2.8748   3.0301   3.0781   3.1421   3.2098
     3.2123   3.2436   3.2496   3.2772   3.3746   3.3756   3.3983   3.4082
     3.4096   3.4492   3.5276   3.5890   3.6092   3.6208   3.6515   3.6962
     3.7114   3.7206   3.7302   3.7418   3.7847   3.7919   3.7961   3.8748
     3.9899   4.0047   4.0212   4.0376   4.0439   4.0548   4.0705   4.1564
     4.1827   4.1947   4.2525   4.2589   4.2818   4.3048   4.3132   4.3185
     4.3381   4.3702   4.3878   4.3927   4.4153   4.4867   4.4962   4.5048
     4.5079   4.5721   4.5853   4.6672   4.6988   4.7377   4.7551   4.7744
     4.7956   4.8044   4.8488   4.8607   4.9080   4.9379   4.9515   4.9543
     4.9870   5.0027   5.0146   5.0725   5.0946   5.1495   5.1533   5.1955
     5.2053   5.2393   5.3040   5.3217   5.3418   5.3674   5.4034   5.4562
     5.4758   5.4810   5.4822   5.5341   5.5527   5.5697   5.5731   5.5851
     5.5869   5.6858   5.7060   5.7392   5.7439   5.7628   5.7668   5.7736
     5.7941   5.8212   5.8232   5.8418   5.8502   5.8844   5.8997   5.9035
     5.9068   5.9394   5.9533   5.9771   5.9823   5.9906   6.0195   6.0289
     6.0383   6.0458   6.0529   6.0590   6.0726   6.0752   6.1032   6.1899
     6.2111   6.2185   6.2383   6.2559   6.2612   6.2664   6.2677   6.3210
     6.3245   6.3261   6.3288   6.3773   6.4063   6.4160   6.4222   6.4667
     6.4763   6.4856   6.5470   6.5522   6.5637   6.5705   6.6609   6.6681
     6.6786   6.7051   6.7072   6.7303   6.7498   6.7666   6.8073   6.8124

          k = 0.0000-0.5774 0.0000 (108310 PWs)   bands (ev):

   -66.9872 -66.9862 -66.9653 -66.9647 -66.9408 -66.9395 -66.9377 -66.9363
   -66.9334 -66.9329 -66.9267 -66.9251 -66.9248 -66.9245 -66.9203 -66.9192
   -66.9111 -66.9084 -66.9081 -66.9072 -66.9050 -66.9030 -66.9025 -66.9012
   -66.7358 -66.7357 -66.7203 -66.7198 -66.7007 -66.6999 -66.6980 -66.6975
   -66.6930 -66.6924 -66.6896 -66.6893 -66.6668 -66.6343 -66.6249 -66.6207
   -66.6199 -66.6070 -66.5816 -66.5798 -66.5792 -66.5753 -66.5743 -66.5691
   -38.7921 -38.7910 -38.7689 -38.7665 -38.6649 -38.6609 -38.6600 -38.6568
   -38.6363 -38.6321 -38.6292 -38.6276 -38.5963 -38.5945 -38.5710 -38.5658
   -38.5350 -38.5294 -38.5241 -38.5222 -38.5196 -38.5143 -38.4979 -38.4942
   -38.4601 -38.4578 -38.4476 -38.4463 -38.3934 -38.3912 -38.3691 -38.3674
   -38.3618 -38.3608 -38.3535 -38.3532 -38.3425 -38.3407 -38.3312 -38.3294
   -38.3252 -38.3251 -38.3186 -38.3148 -38.3043 -38.3026 -38.2891 -38.2696
   -38.2682 -38.2677 -38.2652 -38.2644 -38.2638 -38.2600 -38.2586 -38.2500
   -38.2462 -38.2454 -38.2448 -38.2372 -38.2344 -38.2331 -38.2140 -38.2107
   -38.2070 -38.1950 -38.1945 -38.1912 -38.1847 -38.1825 -38.1815 -38.1781
   -38.1747 -38.1660 -38.1635 -38.1609 -38.1395 -38.1354 -38.1345 -38.1303
   -38.1274 -38.1273 -38.1207 -38.1150 -38.1113 -38.1070 -38.0984 -38.0900
   -38.0800 -38.0778 -38.0620 -38.0571 -38.0547 -38.0491 -38.0454 -38.0448
   -38.0365 -38.0357 -38.0241 -38.0189 -38.0188 -38.0129 -37.9941 -37.9926
   -37.9828 -37.9790 -37.9719 -37.9670 -37.9571 -37.9556 -37.9500 -37.9432
   -37.9404 -37.9368 -37.9330 -37.9298 -37.9181 -37.9169 -37.9127 -37.9114
   -37.9035 -37.9031 -37.9026 -37.9020 -37.8678 -37.8675 -37.8638 -37.8633
   -37.8536 -37.8528 -37.8440 -37.8438 -37.8272 -37.8102 -37.8090 -37.8058
   -37.6949 -37.6911 -37.6880 -37.6777 -37.6715 -37.6692 -37.6646 -37.6548
   -12.2608 -12.2595 -11.8884 -11.8872 -11.8745 -11.8725 -11.6434 -11.6404
   -11.4724 -11.4707 -11.3466 -11.3466 -11.3353 -11.3311 -11.3092 -11.3085
   -11.1276 -11.1260 -11.1073 -11.1071  -8.8258  -8.7123  -8.7123  -8.6776
    -8.6776  -2.9415  -2.9335  -2.8430  -2.8399  -2.7774  -2.7750  -2.7733
    -2.7698  -2.6480  -2.6472  -2.5322  -2.5294  -2.3742  -2.3652  -2.3095
    -2.3004  -2.2530  -2.2431  -2.1308  -2.1182  -2.0374  -2.0354  -1.8511
    -1.8459  -1.7471  -1.6985  -1.6888  -1.6651  -1.5995  -1.5670  -1.5232
    -1.4457  -1.4453  -1.4436  -1.4141  -1.3598  -1.3154  -1.2879  -1.2633
    -1.2613  -1.2485  -1.2449  -1.1325  -1.1269  -1.0496  -1.0495  -1.0358
    -1.0221  -0.9283  -0.9014  -0.8908  -0.8544  -0.8480  -0.8357  -0.8207
    -0.7318  -0.7315  -0.6703  -0.6658  -0.6229  -0.6201  -0.4850  -0.4829
     1.0212   1.0226   1.2078   1.2082   1.4372   1.4387   1.4593   1.4598
     1.5352   1.5355   1.5515   1.5517   1.6920   1.6934   1.7018   1.7080
     1.9282   1.9326   1.9346   1.9373   2.1099   2.1106   2.1444   2.1495
     2.2383   2.2409   2.3707   2.3732   2.3950   2.3959   2.4257   2.4272
     2.4647   2.4674   2.4766   2.4804   2.5852   2.5899   2.7572   2.7638
     2.8101   2.8151   2.8318   2.8361   3.0284   3.0319   3.0500   3.0506
     3.1203   3.1208   3.2131   3.2227   3.3369   3.3381   3.3989   3.4029
     3.4311   3.4373   3.5308   3.5309   3.6165   3.6383   3.6796   3.6830
     3.7419   3.7496   3.8161   3.8304   3.8821   3.8919   3.9126   3.9232
     3.9452   3.9524   3.9829   4.0003   4.0060   4.0214   4.1389   4.1438
     4.1628   4.1752   4.2644   4.2686   4.2994   4.3222   4.3336   4.3549
     4.3693   4.3720   4.3739   4.3941   4.4491   4.4706   4.4831   4.4888
     4.4930   4.4944   4.6121   4.6191   4.6213   4.6439   4.6902   4.6923
     4.7104   4.7120   4.8177   4.8352   4.9951   5.0008   5.0058   5.0090
     5.0104   5.0431   5.0759   5.1149   5.1258   5.1314   5.1463   5.1549
     5.1920   5.1973   5.2734   5.3273   5.3543   5.3568   5.3669   5.3700
     5.4472   5.4490   5.4778   5.5166   5.5259   5.5364   5.5733   5.5916
     5.5978   5.6091   5.6100   5.6766   5.7141   5.7179   5.7534   5.7536
     5.7666   5.7769   5.7895   5.8092   5.8313   5.8632   5.8842   5.8878
     5.8879   5.9109   5.9218   5.9277   5.9689   5.9912   6.0145   6.0182
     6.0466   6.0685   6.0855   6.1299   6.1570   6.1739   6.1768   6.1835
     6.1895   6.1985   6.1995   6.2121   6.2206   6.2256   6.3493   6.3531
     6.3590   6.3651   6.3974   6.4031   6.4375   6.4392   6.4551   6.4602
     6.4739   6.4835   6.5061   6.5104   6.6204   6.6234   6.6343   6.6359
     6.6640   6.6708   6.7241   6.7326   6.8572   6.8659   6.8687   6.8775

          k = 0.2500 0.1443 0.0000 (108355 PWs)   bands (ev):

   -66.9965 -66.9724 -66.9630 -66.9627 -66.9469 -66.9451 -66.9443 -66.9383
   -66.9304 -66.9278 -66.9274 -66.9247 -66.9239 -66.9232 -66.9165 -66.9156
   -66.9142 -66.9131 -66.9099 -66.9062 -66.9047 -66.9031 -66.9011 -66.9002
   -66.7430 -66.7253 -66.7188 -66.7183 -66.7057 -66.7049 -66.7011 -66.6945
   -66.6940 -66.6916 -66.6876 -66.6871 -66.6673 -66.6321 -66.6263 -66.6214
   -66.6178 -66.6080 -66.5819 -66.5808 -66.5792 -66.5784 -66.5702 -66.5692
   -38.8009 -38.7811 -38.7734 -38.7705 -38.6703 -38.6699 -38.6686 -38.6432
   -38.6345 -38.6259 -38.6254 -38.6223 -38.5972 -38.5817 -38.5684 -38.5638
   -38.5376 -38.5343 -38.5254 -38.5188 -38.5115 -38.5100 -38.5048 -38.4825
   -38.4669 -38.4658 -38.4643 -38.4427 -38.3843 -38.3824 -38.3774 -38.3721
   -38.3695 -38.3635 -38.3616 -38.3611 -38.3564 -38.3488 -38.3323 -38.3296
   -38.3276 -38.3200 -38.3143 -38.3124 -38.2964 -38.2829 -38.2790 -38.2680
   -38.2660 -38.2644 -38.2641 -38.2640 -38.2605 -38.2583 -38.2511 -38.2472
   -38.2449 -38.2436 -38.2389 -38.2324 -38.2318 -38.2275 -38.2193 -38.2154
   -38.2133 -38.2103 -38.2094 -38.1981 -38.1935 -38.1915 -38.1896 -38.1691
   -38.1660 -38.1576 -38.1556 -38.1527 -38.1501 -38.1403 -38.1397 -38.1304
   -38.1268 -38.1224 -38.1215 -38.1079 -38.1060 -38.0993 -38.0960 -38.0904
   -38.0832 -38.0813 -38.0700 -38.0581 -38.0530 -38.0497 -38.0479 -38.0403
   -38.0379 -38.0307 -38.0278 -38.0237 -38.0227 -38.0088 -38.0070 -38.0042
   -37.9736 -37.9694 -37.9667 -37.9592 -37.9584 -37.9569 -37.9488 -37.9463
   -37.9424 -37.9402 -37.9383 -37.9246 -37.9231 -37.9172 -37.9148 -37.9116
   -37.9098 -37.9006 -37.9004 -37.8966 -37.8702 -37.8664 -37.8660 -37.8576
   -37.8570 -37.8543 -37.8440 -37.8365 -37.8290 -37.8129 -37.8058 -37.8050
   -37.7017 -37.6957 -37.6875 -37.6738 -37.6725 -37.6691 -37.6588 -37.6529
   -12.4372 -12.0100 -11.9887 -11.8540 -11.8523 -11.7218 -11.6361 -11.6321
   -11.5606 -11.5577 -11.4796 -11.3352 -11.3313 -11.2851 -11.2662 -11.2637
   -11.2539 -11.2003 -11.0357 -11.0145  -8.8258  -8.7108  -8.7106  -8.6993
    -8.6586  -2.9732  -2.9696  -2.9296  -2.8172  -2.7462  -2.7341  -2.7134
    -2.7050  -2.7034  -2.5918  -2.5867  -2.4422  -2.3991  -2.3586  -2.3466
    -2.3465  -2.2903  -2.2375  -2.2134  -2.2035  -2.1579  -1.9624  -1.7826
    -1.7664  -1.7418  -1.6520  -1.6388  -1.5908  -1.5232  -1.5131  -1.4752
    -1.4639  -1.4194  -1.4010  -1.3883  -1.3729  -1.3383  -1.3200  -1.3103
    -1.2893  -1.2533  -1.2482  -1.2313  -1.1209  -1.0790  -1.0622  -1.0145
    -0.9602  -0.9271  -0.9043  -0.8885  -0.8740  -0.8341  -0.8322  -0.8255
    -0.8034  -0.7750  -0.7194  -0.6522  -0.6497  -0.5052  -0.4612  -0.4590
     0.7782   1.1883   1.2199   1.2202   1.4592   1.4594   1.4687   1.4716
     1.5358   1.5543   1.5553   1.5742   1.6351   1.6737   1.6764   1.6882
     1.7895   1.7926   1.8353   2.0751   2.0758   2.1189   2.1685   2.1716
     2.2243   2.2762   2.3088   2.3134   2.3366   2.4345   2.4376   2.4527
     2.4629   2.4652   2.5279   2.5576   2.5602   2.5772   2.5992   2.6284
     2.7317   2.8105   2.8119   2.8744   3.0308   3.0782   3.1413   3.2102
     3.2117   3.2437   3.2492   3.2772   3.3730   3.3772   3.4000   3.4082
     3.4092   3.4485   3.5264   3.5949   3.6085   3.6219   3.6491   3.6900
     3.7115   3.7200   3.7333   3.7425   3.7860   3.7912   3.7952   3.8757
     3.9843   4.0050   4.0231   4.0368   4.0466   4.0558   4.0696   4.1566
     4.1810   4.1950   4.2518   4.2600   4.2879   4.3039   4.3131   4.3183
     4.3391   4.3678   4.3865   4.3891   4.4153   4.4838   4.4956   4.5045
     4.5098   4.5776   4.5859   4.6657   4.6995   4.7386   4.7583   4.7744
     4.7951   4.8049   4.8487   4.8608   4.9075   4.9367   4.9511   4.9557
     4.9868   5.0011   5.0147   5.0742   5.0938   5.1439   5.1534   5.1933
     5.2065   5.2408   5.3052   5.3215   5.3398   5.3675   5.4041   5.4611
     5.4767   5.4813   5.4825   5.5341   5.5541   5.5644   5.5726   5.5853
     5.5877   5.6823   5.7058   5.7330   5.7523   5.7619   5.7672   5.7730
     5.7941   5.8178   5.8243   5.8413   5.8507   5.8886   5.8980   5.9035
     5.9072   5.9375   5.9533   5.9776   5.9818   5.9904   6.0231   6.0289
     6.0380   6.0459   6.0523   6.0588   6.0726   6.0751   6.1044   6.1886
     6.2118   6.2176   6.2375   6.2590   6.2616   6.2654   6.2669   6.3162
     6.3263   6.3265   6.3291   6.3782   6.4086   6.4162   6.4222   6.4670
     6.4766   6.4853   6.5472   6.5527   6.5634   6.5704   6.6597   6.6681
     6.6802   6.7045   6.7067   6.7282   6.7490   6.7667   6.8086   6.8120

          k = 0.2500 0.4330 0.0000 (108308 PWs)   bands (ev):

   -66.9899 -66.9782 -66.9774 -66.9539 -66.9459 -66.9423 -66.9363 -66.9344
   -66.9337 -66.9312 -66.9305 -66.9250 -66.9244 -66.9212 -66.9197 -66.9183
   -66.9147 -66.9094 -66.9070 -66.9062 -66.9045 -66.9036 -66.9020 -66.9014
   -66.7381 -66.7294 -66.7290 -66.7125 -66.7059 -66.6997 -66.6966 -66.6962
   -66.6928 -66.6921 -66.6903 -66.6894 -66.6668 -66.6331 -66.6272 -66.6212
   -66.6180 -66.6071 -66.5809 -66.5806 -66.5793 -66.5762 -66.5727 -66.5696
   -38.7942 -38.7832 -38.7812 -38.7598 -38.6648 -38.6643 -38.6580 -38.6540
   -38.6392 -38.6331 -38.6278 -38.6264 -38.5966 -38.5873 -38.5870 -38.5478
   -38.5415 -38.5300 -38.5292 -38.5237 -38.5223 -38.5060 -38.5024 -38.4898
   -38.4561 -38.4545 -38.4534 -38.4425 -38.4189 -38.3717 -38.3709 -38.3700
   -38.3609 -38.3588 -38.3500 -38.3465 -38.3453 -38.3401 -38.3396 -38.3312
   -38.3251 -38.3197 -38.3179 -38.3159 -38.3010 -38.2946 -38.2925 -38.2878
   -38.2696 -38.2687 -38.2654 -38.2615 -38.2582 -38.2556 -38.2511 -38.2507
   -38.2490 -38.2477 -38.2418 -38.2375 -38.2343 -38.2335 -38.2316 -38.2040
   -38.1993 -38.1990 -38.1949 -38.1881 -38.1858 -38.1831 -38.1791 -38.1751
   -38.1740 -38.1675 -38.1664 -38.1630 -38.1412 -38.1342 -38.1326 -38.1298
   -38.1242 -38.1238 -38.1215 -38.1176 -38.1123 -38.1099 -38.1051 -38.0837
   -38.0797 -38.0789 -38.0605 -38.0599 -38.0566 -38.0516 -38.0497 -38.0443
   -38.0363 -38.0266 -38.0249 -38.0197 -38.0155 -38.0036 -38.0024 -37.9973
   -37.9834 -37.9731 -37.9717 -37.9662 -37.9587 -37.9527 -37.9490 -37.9467
   -37.9435 -37.9365 -37.9355 -37.9294 -37.9186 -37.9143 -37.9137 -37.9097
   -37.9076 -37.9058 -37.8979 -37.8977 -37.8724 -37.8716 -37.8605 -37.8595
   -37.8579 -37.8486 -37.8482 -37.8407 -37.8274 -37.8110 -37.8073 -37.8066
   -37.6966 -37.6919 -37.6825 -37.6819 -37.6728 -37.6662 -37.6653 -37.6549
   -12.3169 -12.1040 -12.1029 -11.9099 -11.7764 -11.7737 -11.7261 -11.5589
   -11.5327 -11.4228 -11.4041 -11.4025 -11.3872 -11.3225 -11.2123 -11.2087
   -11.1879 -11.1868 -11.0992 -11.0794  -8.8258  -8.7210  -8.6936  -8.6934
    -8.6719  -2.9885  -2.8887  -2.8860  -2.8691  -2.7585  -2.7564  -2.7166
    -2.6804  -2.6288  -2.6158  -2.5948  -2.5905  -2.5475  -2.3572  -2.2307
    -2.2184  -2.2098  -2.1895  -2.1360  -2.1277  -2.0874  -2.0853  -1.9607
    -1.8106  -1.7809  -1.7105  -1.6839  -1.5937  -1.5503  -1.5444  -1.4887
    -1.4610  -1.4414  -1.4178  -1.4015  -1.3711  -1.3676  -1.3339  -1.3130
    -1.2941  -1.1874  -1.1844  -1.1417  -1.1400  -1.1181  -1.0734  -0.9608
    -0.9472  -0.9324  -0.9085  -0.8765  -0.8677  -0.8523  -0.8290  -0.8041
    -0.8026  -0.7534  -0.7484  -0.6600  -0.5635  -0.5526  -0.5497  -0.4553
     0.9553   1.1393   1.1403   1.2405   1.4245   1.4407   1.4420   1.4438
     1.4873   1.5685   1.5689   1.5961   1.6610   1.6796   1.6817   1.7388
     1.8566   1.9755   1.9766   2.0639   2.0653   2.1280   2.1303   2.1868
     2.1939   2.2541   2.2557   2.2885   2.3631   2.3684   2.4034   2.4037
     2.4543   2.5041   2.5708   2.5978   2.5988   2.6797   2.6825   2.7959
     2.8015   2.8033   2.8377   2.8405   2.9381   2.9431   2.9434   3.0093
     3.1914   3.2546   3.3003   3.3015   3.3452   3.3462   3.3524   3.4399
     3.4409   3.4444   3.4615   3.5698   3.5877   3.5907   3.6528   3.7157
     3.7244   3.7601   3.7682   3.7947   3.7988   3.8561   3.8799   3.8915
     4.0224   4.0348   4.0613   4.0709   4.0777   4.0860   4.0902   4.1287
     4.1542   4.1728   4.2103   4.2467   4.2488   4.3064   4.3132   4.3334
     4.3625   4.3734   4.3987   4.4102   4.4345   4.4448   4.4712   4.4794
     4.5666   4.5731   4.5967   4.6056   4.6091   4.6132   4.6509   4.6855
     4.7407   4.8700   4.8718   4.8901   4.8950   4.9079   4.9139   4.9180
     4.9660   4.9992   5.0494   5.0781   5.1316   5.1653   5.1729   5.1782
     5.2071   5.2863   5.3021   5.3262   5.3328   5.3559   5.4010   5.4349
     5.4457   5.4477   5.4643   5.4928   5.5139   5.5276   5.5611   5.5961
     5.6092   5.6376   5.6657   5.7188   5.7318   5.7384   5.7483   5.7519
     5.7827   5.7841   5.7872   5.7910   5.8053   5.8604   5.8701   5.8868
     5.8882   5.8996   5.9173   5.9342   5.9412   5.9796   5.9863   6.0376
     6.0416   6.0542   6.0761   6.0862   6.1041   6.1196   6.1225   6.1786
     6.1861   6.1928   6.2225   6.2295   6.2490   6.2815   6.2992   6.3151
     6.3495   6.3599   6.3825   6.3869   6.4427   6.4689   6.4775   6.5085
     6.5139   6.5159   6.5761   6.5781   6.6074   6.6269   6.6594   6.6825
     6.6848   6.6911   6.7254   6.7371   6.7476   6.8063   6.8611   6.8660

          k = 0.2500-0.4330 0.0000 (108308 PWs)   bands (ev):

   -66.9899 -66.9782 -66.9774 -66.9539 -66.9459 -66.9423 -66.9362 -66.9344
   -66.9337 -66.9312 -66.9305 -66.9250 -66.9244 -66.9212 -66.9197 -66.9183
   -66.9147 -66.9094 -66.9070 -66.9062 -66.9045 -66.9036 -66.9020 -66.9015
   -66.7381 -66.7294 -66.7290 -66.7125 -66.7059 -66.6997 -66.6966 -66.6962
   -66.6928 -66.6921 -66.6903 -66.6894 -66.6668 -66.6331 -66.6272 -66.6212
   -66.6180 -66.6071 -66.5809 -66.5806 -66.5793 -66.5762 -66.5727 -66.5696
   -38.7942 -38.7832 -38.7812 -38.7598 -38.6648 -38.6643 -38.6580 -38.6540
   -38.6392 -38.6331 -38.6278 -38.6264 -38.5966 -38.5873 -38.5870 -38.5478
   -38.5415 -38.5300 -38.5292 -38.5237 -38.5223 -38.5060 -38.5024 -38.4898
   -38.4561 -38.4545 -38.4534 -38.4426 -38.4189 -38.3717 -38.3709 -38.3700
   -38.3609 -38.3588 -38.3500 -38.3465 -38.3453 -38.3401 -38.3396 -38.3312
   -38.3251 -38.3197 -38.3179 -38.3159 -38.3010 -38.2946 -38.2925 -38.2878
   -38.2696 -38.2687 -38.2654 -38.2615 -38.2582 -38.2556 -38.2511 -38.2507
   -38.2490 -38.2477 -38.2418 -38.2375 -38.2343 -38.2335 -38.2316 -38.2040
   -38.1993 -38.1990 -38.1949 -38.1881 -38.1858 -38.1831 -38.1791 -38.1751
   -38.1740 -38.1675 -38.1664 -38.1630 -38.1412 -38.1342 -38.1326 -38.1298
   -38.1242 -38.1238 -38.1215 -38.1176 -38.1123 -38.1099 -38.1051 -38.0837
   -38.0797 -38.0789 -38.0605 -38.0599 -38.0566 -38.0516 -38.0497 -38.0443
   -38.0363 -38.0266 -38.0249 -38.0197 -38.0155 -38.0036 -38.0024 -37.9973
   -37.9834 -37.9731 -37.9717 -37.9662 -37.9587 -37.9527 -37.9490 -37.9467
   -37.9435 -37.9365 -37.9355 -37.9294 -37.9186 -37.9143 -37.9137 -37.9097
   -37.9076 -37.9058 -37.8979 -37.8977 -37.8724 -37.8716 -37.8605 -37.8595
   -37.8579 -37.8486 -37.8482 -37.8407 -37.8274 -37.8110 -37.8073 -37.8066
   -37.6966 -37.6919 -37.6825 -37.6818 -37.6728 -37.6662 -37.6653 -37.6549
   -12.3169 -12.1040 -12.1029 -11.9099 -11.7763 -11.7737 -11.7261 -11.5589
   -11.5327 -11.4228 -11.4041 -11.4025 -11.3872 -11.3225 -11.2123 -11.2087
   -11.1879 -11.1868 -11.0992 -11.0794  -8.8258  -8.7210  -8.6936  -8.6934
    -8.6719  -2.9885  -2.8887  -2.8860  -2.8691  -2.7584  -2.7564  -2.7166
    -2.6804  -2.6288  -2.6158  -2.5948  -2.5905  -2.5475  -2.3572  -2.2307
    -2.2184  -2.2098  -2.1895  -2.1360  -2.1277  -2.0874  -2.0853  -1.9607
    -1.8106  -1.7809  -1.7105  -1.6839  -1.5937  -1.5503  -1.5444  -1.4887
    -1.4610  -1.4414  -1.4178  -1.4015  -1.3711  -1.3676  -1.3339  -1.3130
    -1.2941  -1.1874  -1.1844  -1.1417  -1.1400  -1.1181  -1.0734  -0.9608
    -0.9472  -0.9324  -0.9085  -0.8765  -0.8677  -0.8523  -0.8290  -0.8041
    -0.8026  -0.7534  -0.7484  -0.6600  -0.5635  -0.5525  -0.5497  -0.4553
     0.9553   1.1393   1.1403   1.2405   1.4245   1.4407   1.4420   1.4438
     1.4873   1.5685   1.5689   1.5961   1.6610   1.6796   1.6817   1.7388
     1.8566   1.9755   1.9767   2.0639   2.0653   2.1280   2.1303   2.1868
     2.1939   2.2541   2.2557   2.2885   2.3631   2.3684   2.4034   2.4037
     2.4543   2.5041   2.5708   2.5978   2.5988   2.6797   2.6825   2.7959
     2.8015   2.8033   2.8377   2.8405   2.9381   2.9431   2.9434   3.0093
     3.1914   3.2546   3.3003   3.3015   3.3452   3.3462   3.3524   3.4399
     3.4409   3.4444   3.4615   3.5698   3.5877   3.5907   3.6528   3.7157
     3.7244   3.7601   3.7682   3.7947   3.7988   3.8561   3.8799   3.8915
     4.0223   4.0348   4.0613   4.0709   4.0777   4.0860   4.0902   4.1287
     4.1542   4.1728   4.2103   4.2467   4.2488   4.3064   4.3132   4.3334
     4.3625   4.3734   4.3987   4.4102   4.4345   4.4448   4.4712   4.4794
     4.5666   4.5731   4.5967   4.6056   4.6091   4.6132   4.6509   4.6855
     4.7407   4.8700   4.8718   4.8901   4.8950   4.9078   4.9139   4.9180
     4.9660   4.9992   5.0494   5.0781   5.1316   5.1652   5.1729   5.1782
     5.2071   5.2863   5.3021   5.3262   5.3328   5.3559   5.4010   5.4349
     5.4457   5.4477   5.4643   5.4928   5.5139   5.5276   5.5611   5.5961
     5.6092   5.6376   5.6657   5.7188   5.7318   5.7384   5.7483   5.7519
     5.7827   5.7841   5.7872   5.7910   5.8053   5.8604   5.8701   5.8868
     5.8882   5.8996   5.9172   5.9342   5.9412   5.9796   5.9863   6.0376
     6.0416   6.0542   6.0761   6.0862   6.1041   6.1196   6.1225   6.1786
     6.1861   6.1928   6.2225   6.2295   6.2490   6.2815   6.2992   6.3151
     6.3495   6.3599   6.3825   6.3869   6.4427   6.4689   6.4775   6.5086
     6.5139   6.5159   6.5761   6.5781   6.6074   6.6269   6.6594   6.6825
     6.6848   6.6911   6.7254   6.7372   6.7476   6.8066   6.8621   6.8667

          k = 0.2500-0.1443 0.0000 (108355 PWs)   bands (ev):

   -66.9965 -66.9724 -66.9630 -66.9627 -66.9469 -66.9451 -66.9443 -66.9383
   -66.9304 -66.9278 -66.9274 -66.9247 -66.9239 -66.9232 -66.9165 -66.9156
   -66.9142 -66.9131 -66.9099 -66.9062 -66.9047 -66.9031 -66.9011 -66.9002
   -66.7430 -66.7253 -66.7188 -66.7183 -66.7057 -66.7049 -66.7011 -66.6945
   -66.6940 -66.6916 -66.6876 -66.6871 -66.6673 -66.6321 -66.6263 -66.6214
   -66.6178 -66.6080 -66.5818 -66.5809 -66.5792 -66.5784 -66.5702 -66.5692
   -38.8009 -38.7811 -38.7734 -38.7705 -38.6703 -38.6699 -38.6686 -38.6432
   -38.6345 -38.6259 -38.6254 -38.6223 -38.5972 -38.5817 -38.5684 -38.5638
   -38.5376 -38.5343 -38.5254 -38.5188 -38.5115 -38.5100 -38.5048 -38.4825
   -38.4669 -38.4658 -38.4643 -38.4427 -38.3843 -38.3824 -38.3774 -38.3721
   -38.3695 -38.3635 -38.3616 -38.3611 -38.3564 -38.3488 -38.3323 -38.3296
   -38.3276 -38.3200 -38.3143 -38.3124 -38.2964 -38.2829 -38.2790 -38.2680
   -38.2660 -38.2644 -38.2641 -38.2640 -38.2605 -38.2583 -38.2511 -38.2472
   -38.2449 -38.2436 -38.2389 -38.2324 -38.2318 -38.2275 -38.2193 -38.2154
   -38.2133 -38.2103 -38.2094 -38.1981 -38.1935 -38.1915 -38.1896 -38.1691
   -38.1660 -38.1576 -38.1556 -38.1527 -38.1501 -38.1403 -38.1397 -38.1304
   -38.1268 -38.1224 -38.1215 -38.1079 -38.1060 -38.0993 -38.0960 -38.0904
   -38.0832 -38.0813 -38.0700 -38.0581 -38.0530 -38.0497 -38.0479 -38.0403
   -38.0379 -38.0307 -38.0278 -38.0237 -38.0227 -38.0088 -38.0070 -38.0042
   -37.9736 -37.9694 -37.9667 -37.9592 -37.9584 -37.9569 -37.9488 -37.9463
   -37.9424 -37.9402 -37.9383 -37.9246 -37.9232 -37.9172 -37.9148 -37.9116
   -37.9098 -37.9006 -37.9004 -37.8966 -37.8702 -37.8664 -37.8660 -37.8576
   -37.8570 -37.8543 -37.8440 -37.8365 -37.8290 -37.8129 -37.8058 -37.8050
   -37.7017 -37.6957 -37.6875 -37.6738 -37.6725 -37.6691 -37.6588 -37.6529
   -12.4372 -12.0100 -11.9887 -11.8540 -11.8523 -11.7218 -11.6361 -11.6321
   -11.5606 -11.5577 -11.4796 -11.3352 -11.3313 -11.2851 -11.2662 -11.2637
   -11.2539 -11.2003 -11.0357 -11.0145  -8.8258  -8.7108  -8.7106  -8.6993
    -8.6586  -2.9732  -2.9696  -2.9296  -2.8172  -2.7462  -2.7341  -2.7134
    -2.7050  -2.7034  -2.5918  -2.5867  -2.4422  -2.3991  -2.3586  -2.3466
    -2.3465  -2.2903  -2.2375  -2.2134  -2.2035  -2.1579  -1.9624  -1.7826
    -1.7664  -1.7418  -1.6520  -1.6388  -1.5908  -1.5232  -1.5131  -1.4752
    -1.4639  -1.4194  -1.4010  -1.3883  -1.3729  -1.3383  -1.3200  -1.3103
    -1.2893  -1.2533  -1.2482  -1.2313  -1.1209  -1.0790  -1.0622  -1.0145
    -0.9602  -0.9271  -0.9043  -0.8885  -0.8740  -0.8341  -0.8322  -0.8255
    -0.8034  -0.7750  -0.7194  -0.6522  -0.6497  -0.5052  -0.4612  -0.4590
     0.7782   1.1883   1.2199   1.2202   1.4592   1.4594   1.4687   1.4716
     1.5358   1.5543   1.5553   1.5742   1.6351   1.6737   1.6764   1.6882
     1.7895   1.7926   1.8353   2.0751   2.0758   2.1189   2.1685   2.1716
     2.2243   2.2762   2.3088   2.3134   2.3366   2.4345   2.4376   2.4527
     2.4629   2.4652   2.5279   2.5576   2.5602   2.5772   2.5992   2.6284
     2.7317   2.8105   2.8119   2.8744   3.0308   3.0782   3.1413   3.2102
     3.2117   3.2437   3.2492   3.2772   3.3730   3.3772   3.4000   3.4082
     3.4092   3.4485   3.5264   3.5950   3.6084   3.6219   3.6491   3.6900
     3.7115   3.7200   3.7333   3.7426   3.7860   3.7912   3.7952   3.8757
     3.9843   4.0050   4.0231   4.0368   4.0466   4.0558   4.0696   4.1566
     4.1810   4.1950   4.2518   4.2600   4.2879   4.3039   4.3131   4.3183
     4.3391   4.3678   4.3865   4.3891   4.4153   4.4838   4.4956   4.5045
     4.5098   4.5776   4.5859   4.6657   4.6995   4.7386   4.7583   4.7744
     4.7951   4.8049   4.8487   4.8608   4.9075   4.9367   4.9511   4.9557
     4.9868   5.0011   5.0147   5.0742   5.0938   5.1439   5.1534   5.1933
     5.2065   5.2408   5.3052   5.3215   5.3398   5.3675   5.4041   5.4611
     5.4767   5.4813   5.4825   5.5341   5.5541   5.5644   5.5726   5.5853
     5.5877   5.6823   5.7058   5.7330   5.7523   5.7619   5.7672   5.7730
     5.7941   5.8178   5.8243   5.8413   5.8506   5.8886   5.8980   5.9035
     5.9072   5.9375   5.9533   5.9776   5.9818   5.9904   6.0231   6.0289
     6.0379   6.0459   6.0523   6.0588   6.0726   6.0751   6.1044   6.1886
     6.2118   6.2176   6.2375   6.2590   6.2616   6.2654   6.2669   6.3162
     6.3263   6.3265   6.3291   6.3782   6.4086   6.4162   6.4222   6.4670
     6.4766   6.4853   6.5472   6.5527   6.5634   6.5704   6.6597   6.6681
     6.6802   6.7045   6.7067   6.7283   6.7490   6.7668   6.8088   6.8120

          k =-0.5000-0.2887 0.0000 (108310 PWs)   bands (ev):

   -66.9871 -66.9863 -66.9652 -66.9648 -66.9406 -66.9397 -66.9373 -66.9362
   -66.9335 -66.9332 -66.9267 -66.9253 -66.9249 -66.9246 -66.9202 -66.9192
   -66.9102 -66.9087 -66.9085 -66.9076 -66.9046 -66.9033 -66.9023 -66.9011
   -66.7359 -66.7356 -66.7203 -66.7197 -66.7009 -66.6998 -66.6979 -66.6976
   -66.6930 -66.6924 -66.6897 -66.6892 -66.6668 -66.6327 -66.6262 -66.6239
   -66.6170 -66.6068 -66.5819 -66.5798 -66.5794 -66.5757 -66.5727 -66.5698
   -38.7922 -38.7910 -38.7690 -38.7663 -38.6650 -38.6612 -38.6594 -38.6568
   -38.6363 -38.6320 -38.6292 -38.6280 -38.5963 -38.5947 -38.5705 -38.5657
   -38.5349 -38.5297 -38.5244 -38.5224 -38.5187 -38.5144 -38.4980 -38.4948
   -38.4599 -38.4581 -38.4473 -38.4458 -38.3938 -38.3915 -38.3688 -38.3675
   -38.3618 -38.3608 -38.3534 -38.3529 -38.3426 -38.3408 -38.3311 -38.3297
   -38.3254 -38.3246 -38.3199 -38.3147 -38.3040 -38.3027 -38.2883 -38.2693
   -38.2682 -38.2677 -38.2649 -38.2644 -38.2638 -38.2599 -38.2581 -38.2502
   -38.2470 -38.2458 -38.2449 -38.2368 -38.2341 -38.2332 -38.2140 -38.2109
   -38.2058 -38.1967 -38.1950 -38.1901 -38.1842 -38.1818 -38.1815 -38.1783
   -38.1735 -38.1666 -38.1636 -38.1631 -38.1398 -38.1371 -38.1335 -38.1302
   -38.1277 -38.1274 -38.1169 -38.1147 -38.1119 -38.1088 -38.0982 -38.0905
   -38.0796 -38.0783 -38.0619 -38.0567 -38.0546 -38.0503 -38.0455 -38.0443
   -38.0368 -38.0354 -38.0240 -38.0190 -38.0180 -38.0130 -37.9946 -37.9930
   -37.9834 -37.9789 -37.9700 -37.9672 -37.9573 -37.9558 -37.9485 -37.9429
   -37.9399 -37.9374 -37.9337 -37.9301 -37.9199 -37.9162 -37.9126 -37.9111
   -37.9035 -37.9031 -37.9028 -37.9019 -37.8680 -37.8673 -37.8637 -37.8633
   -37.8536 -37.8529 -37.8442 -37.8437 -37.8272 -37.8107 -37.8079 -37.8064
   -37.6996 -37.6885 -37.6843 -37.6786 -37.6724 -37.6680 -37.6655 -37.6551
   -12.2608 -12.2595 -11.8887 -11.8869 -11.8748 -11.8723 -11.6437 -11.6399
   -11.4727 -11.4704 -11.3467 -11.3465 -11.3361 -11.3305 -11.3094 -11.3083
   -11.1281 -11.1256 -11.1073 -11.1071  -8.8258  -8.7124  -8.7122  -8.6778
    -8.6775  -2.9411  -2.9326  -2.8427  -2.8403  -2.7779  -2.7763  -2.7724
    -2.7694  -2.6493  -2.6475  -2.5318  -2.5298  -2.3758  -2.3649  -2.3068
    -2.3020  -2.2519  -2.2440  -2.1307  -2.1187  -2.0450  -2.0358  -1.8446
    -1.8431  -1.7415  -1.7033  -1.6719  -1.6647  -1.6019  -1.5674  -1.5157
    -1.4726  -1.4436  -1.4379  -1.4150  -1.3751  -1.3036  -1.2927  -1.2630
    -1.2610  -1.2483  -1.2435  -1.1298  -1.1275  -1.0506  -1.0494  -1.0320
    -1.0256  -0.9222  -0.9012  -0.8974  -0.8549  -0.8498  -0.8354  -0.8186
    -0.7317  -0.7303  -0.6695  -0.6676  -0.6225  -0.6192  -0.4849  -0.4825
     1.0215   1.0231   1.2078   1.2081   1.4373   1.4389   1.4593   1.4598
     1.5352   1.5354   1.5515   1.5517   1.6920   1.6937   1.7023   1.7078
     1.9280   1.9328   1.9359   1.9373   2.1096   2.1110   2.1452   2.1496
     2.2379   2.2407   2.3708   2.3731   2.3950   2.3958   2.4256   2.4273
     2.4644   2.4676   2.4757   2.4806   2.5850   2.5906   2.7585   2.7610
     2.8103   2.8144   2.8315   2.8375   3.0275   3.0321   3.0490   3.0501
     3.1200   3.1209   3.2143   3.2219   3.3383   3.3389   3.3986   3.4020
     3.4312   3.4368   3.5318   3.5321   3.6198   3.6375   3.6784   3.6805
     3.7394   3.7489   3.8234   3.8283   3.8801   3.8845   3.9127   3.9226
     3.9491   3.9531   3.9783   4.0019   4.0070   4.0180   4.1366   4.1490
     4.1631   4.1758   4.2631   4.2869   4.2998   4.3035   4.3346   4.3584
     4.3663   4.3716   4.3770   4.3921   4.4523   4.4678   4.4829   4.4877
     4.4899   4.4999   4.6114   4.6204   4.6246   4.6444   4.6900   4.6923
     4.7100   4.7118   4.8224   4.8352   4.9945   5.0010   5.0052   5.0073
     5.0097   5.0404   5.0732   5.1120   5.1273   5.1316   5.1466   5.1540
     5.1935   5.1990   5.2749   5.3244   5.3545   5.3565   5.3671   5.3704
     5.4475   5.4493   5.4774   5.5203   5.5315   5.5363   5.5744   5.5897
     5.5923   5.6018   5.6117   5.6743   5.7129   5.7193   5.7528   5.7552
     5.7706   5.7735   5.7825   5.8068   5.8421   5.8615   5.8817   5.8866
     5.8885   5.9107   5.9225   5.9276   5.9655   5.9959   6.0144   6.0180
     6.0473   6.0693   6.0852   6.1295   6.1582   6.1745   6.1774   6.1858
     6.1881   6.1983   6.2001   6.2116   6.2199   6.2255   6.3493   6.3555
     6.3592   6.3641   6.3959   6.4031   6.4372   6.4410   6.4552   6.4603
     6.4742   6.4834   6.5075   6.5103   6.6205   6.6229   6.6351   6.6362
     6.6647   6.6725   6.7242   6.7302   6.8590   6.8665   6.8669   6.8789

          k =-0.5000 0.0000 0.0000 (108308 PWs)   bands (ev):

   -66.9899 -66.9782 -66.9773 -66.9540 -66.9457 -66.9423 -66.9363 -66.9348
   -66.9334 -66.9311 -66.9305 -66.9250 -66.9244 -66.9213 -66.9197 -66.9186
   -66.9141 -66.9096 -66.9074 -66.9059 -66.9046 -66.9033 -66.9025 -66.9012
   -66.7381 -66.7293 -66.7291 -66.7125 -66.7059 -66.6997 -66.6965 -66.6962
   -66.6928 -66.6921 -66.6903 -66.6894 -66.6668 -66.6309 -66.6301 -66.6198
   -66.6189 -66.6068 -66.5812 -66.5807 -66.5791 -66.5762 -66.5720 -66.5701
   -38.7942 -38.7831 -38.7813 -38.7598 -38.6649 -38.6641 -38.6584 -38.6538
   -38.6389 -38.6331 -38.6281 -38.6264 -38.5967 -38.5872 -38.5869 -38.5476
   -38.5414 -38.5302 -38.5290 -38.5238 -38.5223 -38.5062 -38.5022 -38.4901
   -38.4556 -38.4546 -38.4536 -38.4423 -38.4191 -38.3717 -38.3709 -38.3699
   -38.3609 -38.3586 -38.3498 -38.3465 -38.3452 -38.3403 -38.3395 -38.3313
   -38.3257 -38.3199 -38.3180 -38.3159 -38.3003 -38.2946 -38.2926 -38.2877
   -38.2696 -38.2686 -38.2655 -38.2612 -38.2581 -38.2555 -38.2512 -38.2507
   -38.2492 -38.2479 -38.2418 -38.2372 -38.2341 -38.2336 -38.2319 -38.2041
   -38.2001 -38.1990 -38.1933 -38.1882 -38.1863 -38.1829 -38.1792 -38.1748
   -38.1738 -38.1681 -38.1673 -38.1628 -38.1417 -38.1337 -38.1328 -38.1289
   -38.1241 -38.1233 -38.1213 -38.1181 -38.1118 -38.1107 -38.1053 -38.0837
   -38.0799 -38.0786 -38.0603 -38.0601 -38.0569 -38.0513 -38.0494 -38.0447
   -38.0366 -38.0262 -38.0250 -38.0194 -38.0153 -38.0042 -38.0023 -37.9975
   -37.9835 -37.9724 -37.9721 -37.9660 -37.9585 -37.9527 -37.9484 -37.9456
   -37.9447 -37.9360 -37.9358 -37.9297 -37.9197 -37.9148 -37.9128 -37.9096
   -37.9077 -37.9059 -37.8980 -37.8976 -37.8724 -37.8717 -37.8605 -37.8595
   -37.8579 -37.8485 -37.8482 -37.8407 -37.8274 -37.8108 -37.8073 -37.8067
   -37.6983 -37.6909 -37.6826 -37.6804 -37.6724 -37.6671 -37.6652 -37.6551
   -12.3169 -12.1040 -12.1029 -11.9099 -11.7761 -11.7739 -11.7261 -11.5588
   -11.5327 -11.4228 -11.4040 -11.4025 -11.3873 -11.3226 -11.2118 -11.2092
   -11.1878 -11.1869 -11.0992 -11.0794  -8.8258  -8.7210  -8.6935  -8.6935
    -8.6719  -2.9884  -2.8889  -2.8850  -2.8701  -2.7590  -2.7556  -2.7171
    -2.6797  -2.6280  -2.6160  -2.5947  -2.5904  -2.5485  -2.3593  -2.2314
    -2.2184  -2.2076  -2.1897  -2.1379  -2.1277  -2.0864  -2.0832  -1.9667
    -1.8132  -1.7750  -1.6954  -1.6830  -1.6010  -1.5530  -1.5251  -1.5063
    -1.4607  -1.4478  -1.4228  -1.3971  -1.3727  -1.3668  -1.3360  -1.3150
    -1.2918  -1.1873  -1.1826  -1.1429  -1.1400  -1.1150  -1.0736  -0.9646
    -0.9423  -0.9279  -0.9143  -0.8795  -0.8676  -0.8490  -0.8299  -0.8044
    -0.8032  -0.7532  -0.7466  -0.6610  -0.5636  -0.5524  -0.5492  -0.4553
     0.9556   1.1394   1.1402   1.2405   1.4246   1.4408   1.4419   1.4438
     1.4873   1.5685   1.5689   1.5961   1.6612   1.6797   1.6816   1.7392
     1.8569   1.9755   1.9766   2.0639   2.0652   2.1281   2.1300   2.1868
     2.1940   2.2552   2.2559   2.2885   2.3628   2.3687   2.4033   2.4036
     2.4530   2.5042   2.5713   2.5979   2.5987   2.6800   2.6825   2.7960
     2.7995   2.8034   2.8376   2.8399   2.9396   2.9427   2.9434   3.0092
     3.1914   3.2544   3.2992   3.3018   3.3450   3.3461   3.3525   3.4400
     3.4429   3.4444   3.4611   3.5701   3.5883   3.5904   3.6547   3.7157
     3.7221   3.7610   3.7653   3.7936   3.7987   3.8570   3.8798   3.8964
     4.0208   4.0362   4.0606   4.0705   4.0756   4.0848   4.0890   4.1314
     4.1477   4.1753   4.2096   4.2469   4.2486   4.3062   4.3215   4.3319
     4.3567   4.3716   4.4005   4.4104   4.4406   4.4423   4.4708   4.4756
     4.5705   4.5723   4.5963   4.6085   4.6086   4.6140   4.6513   4.6857
     4.7407   4.8697   4.8717   4.8943   4.8949   4.9051   4.9141   4.9180
     4.9654   4.9986   5.0488   5.0783   5.1322   5.1657   5.1713   5.1785
     5.2070   5.2865   5.2984   5.3240   5.3331   5.3558   5.4019   5.4331
     5.4461   5.4477   5.4650   5.4934   5.5201   5.5273   5.5660   5.5897
     5.6075   5.6381   5.6688   5.7180   5.7275   5.7357   5.7462   5.7545
     5.7778   5.7853   5.7880   5.7913   5.8075   5.8587   5.8743   5.8869
[...]
     6.5931   6.6374   6.6656   6.6661   6.6757   6.7354   6.7902   6.7912

          k =-0.5000-0.8660 0.0000 (108310 PWs)   bands (ev):

   -67.0677 -67.0675 -67.0467 -67.0465 -67.0202 -67.0196 -67.0184 -67.0178
   -67.0167 -67.0165 -67.0094 -67.0090 -67.0048 -67.0044 -67.0036 -67.0026
   -66.9859 -66.9853 -66.9847 -66.9829 -66.9800 -66.9785 -66.9769 -66.9762
   -66.8258 -66.8255 -66.8128 -66.8125 -66.7809 -66.7805 -66.7764 -66.7760
   -66.7739 -66.7735 -66.7701 -66.7697 -66.7229 -66.7189 -66.7100 -66.7077
   -66.6749 -66.6727 -66.6684 -66.6640 -66.6629 -66.6624 -66.6614 -66.6587
   -38.8607 -38.8601 -38.8371 -38.8364 -38.7345 -38.7336 -38.7323 -38.7319
   -38.7105 -38.7099 -38.7095 -38.7092 -38.6735 -38.6731 -38.6433 -38.6423
   -38.6138 -38.6124 -38.6095 -38.6094 -38.6091 -38.6079 -38.5865 -38.5864
   -38.5350 -38.5348 -38.5285 -38.5284 -38.5247 -38.5244 -38.5054 -38.5049
   -38.4698 -38.4693 -38.4332 -38.4327 -38.4266 -38.4254 -38.4103 -38.4100
   -38.4029 -38.4023 -38.4000 -38.3992 -38.3853 -38.3849 -38.3678 -38.3674
   -38.3650 -38.3649 -38.3581 -38.3581 -38.3449 -38.3447 -38.3440 -38.3437
   -38.3292 -38.3290 -38.3261 -38.3249 -38.3213 -38.3200 -38.2921 -38.2917
   -38.2841 -38.2818 -38.2781 -38.2773 -38.2650 -38.2644 -38.2633 -38.2628
   -38.2469 -38.2467 -38.2436 -38.2417 -38.2213 -38.2205 -38.2144 -38.2139
   -38.2064 -38.2060 -38.1954 -38.1950 -38.1862 -38.1851 -38.1690 -38.1687
   -38.1461 -38.1409 -38.1379 -38.1337 -38.1330 -38.1308 -38.1227 -38.1215
   -38.1001 -38.1000 -38.0929 -38.0911 -38.0899 -38.0878 -38.0692 -38.0678
   -38.0585 -38.0575 -38.0394 -38.0387 -38.0221 -38.0211 -38.0205 -38.0200
   -38.0147 -38.0145 -38.0092 -38.0081 -37.9967 -37.9958 -37.9936 -37.9927
   -37.9889 -37.9883 -37.9880 -37.9875 -37.9461 -37.9458 -37.9380 -37.9370
   -37.9307 -37.9299 -37.9197 -37.9191 -37.9008 -37.8998 -37.8968 -37.8961
   -37.7759 -37.7717 -37.7648 -37.7601 -37.7537 -37.7516 -37.7433 -37.7399
   -12.2946 -12.2936 -11.9232 -11.9222 -11.9130 -11.9115 -11.6700 -11.6682
   -11.5037 -11.5027 -11.3950 -11.3939 -11.3851 -11.3797 -11.2923 -11.2921
   -11.1798 -11.1739 -11.0810 -11.0794  -9.3157  -9.3145  -9.2527  -9.2516
    -7.0522  -2.9806  -2.9786  -2.8764  -2.8756  -2.8146  -2.8129  -2.7968
    -2.7964  -2.6717  -2.6715  -2.5641  -2.5628  -2.3929  -2.3903  -2.3423
    -2.3414  -2.2888  -2.2874  -2.1357  -2.1333  -2.0678  -2.0662  -1.8734
    -1.8732  -1.7405  -1.7388  -1.6846  -1.6823  -1.5951  -1.5935  -1.4815
    -1.4788  -1.4679  -1.4664  -1.3632  -1.3618  -1.2969  -1.2968  -1.2692
    -1.2686  -1.1575  -1.1549  -1.0857  -1.0828  -1.0580  -1.0550  -0.9446
    -0.9400  -0.8942  -0.8910  -0.8636  -0.8581  -0.7824  -0.7813  -0.6982
    -0.6934  -0.6387  -0.6335  -0.4756  -0.4748   0.4182   0.5386   0.5393
     0.7004   0.7030   0.7481   0.7495   0.9968   0.9975   1.0096   1.0113
     1.0258   1.0266   1.0705   1.0707   1.3111   1.3142   1.5597   1.5612
     1.8364   1.8374   1.8564   1.8607   1.9598   1.9619   1.9952   1.9973
     2.1332   2.1340   2.3068   2.3118   2.3138   2.3149   2.3619   2.3626
     2.4066   2.4078   2.4103   2.4134   2.5217   2.5227   2.6659   2.6706
     2.6871   2.6889   2.7529   2.7552   2.9555   2.9566   2.9686   2.9699
     3.0289   3.0306   3.1414   3.1438   3.2589   3.2608   3.3154   3.3167
     3.3561   3.3574   3.4465   3.4485   3.5451   3.5469   3.6044   3.6048
     3.6672   3.6698   3.7212   3.7253   3.8045   3.8122   3.8267   3.8292
     3.8735   3.8755   3.8998   3.9052   3.9364   3.9413   4.0585   4.0667
     4.0733   4.0741   4.1891   4.1929   4.2516   4.2570   4.2598   4.2616
     4.2895   4.2920   4.3033   4.3058   4.3504   4.3628   4.3707   4.3728
     4.4063   4.4077   4.5361   4.5380   4.5614   4.5670   4.5769   4.5775
     4.6132   4.6160   4.7405   4.7464   4.9066   4.9156   4.9340   4.9374
     4.9842   4.9873   4.9876   4.9889   5.0559   5.0603   5.0621   5.0652
     5.1188   5.1237   5.1933   5.2028   5.2813   5.2850   5.2857   5.2871
     5.3555   5.3560   5.3942   5.4001   5.4850   5.4878   5.4890   5.4962
     5.5125   5.5180   5.5378   5.5384   5.6629   5.6635   5.6754   5.6763
     5.7067   5.7100   5.7119   5.7134   5.7712   5.7726   5.8125   5.8170
     5.8197   5.8224   5.8503   5.8520   5.9164   5.9197   5.9394   5.9416
     5.9804   5.9838   6.0035   6.0085   6.1115   6.1140   6.1150   6.1162
     6.1177   6.1203   6.1458   6.1480   6.1680   6.1686   6.2929   6.2965
     6.2981   6.3018   6.3217   6.3256   6.3660   6.3671   6.3752   6.3780
     6.3825   6.3841   6.4588   6.4595   6.5565   6.5605   6.5631   6.5671
     6.5942   6.5975   6.6694   6.6700   6.7877   6.7886   6.8167   6.8196

     the Fermi energy is     5.1267 ev

!    total energy              =  -12616.46612083 Ry
     total all-electron energy =   -103594.969928 Ry
     estimated scf accuracy    <          9.1E-11 Ry
     smearing contrib. (-TS)   =       0.00937175 Ry
     internal energy E=F+TS    =  -12616.47549257 Ry

     The total energy is F=E-TS. E is the sum of the following terms:
     one-electron contribution =  -66952.87342636 Ry
     hartree contribution      =   33588.31344653 Ry
     xc contribution           =   -1216.04249364 Ry
     ewald contribution        =   25726.48859051 Ry
     DFT-D3 Dispersion         =      -1.07883770 Ry
     one-center paw contrib.   =   -3761.28277190 Ry

     convergence has been achieved in  42 iterations

     negative rho (up, down):  1.613E-04 0.000E+00

     Forces acting on atoms (cartesian axes, Ry/au):

     atom    1 type  1   force =     0.00029042    0.00015807   -0.00009549
     atom    2 type  1   force =     0.00004303    0.00030378   -0.00027944
     atom    3 type  1   force =     0.00012084    0.00016236   -0.00032445
     atom    4 type  1   force =    -0.00001316    0.00016112    0.00026362
     atom    5 type  1   force =    -0.00010025   -0.00024522    0.00009471
     atom    6 type  1   force =    -0.00033537   -0.00023296    0.00015824
     atom    7 type  2   force =    -0.00011093    0.00002425   -0.00042754
     atom    8 type  2   force =     0.00001035    0.00004177    0.00017756
     atom    9 type  2   force =    -0.00002636    0.00003594    0.00035650
     atom   10 type  1   force =    -0.00047177   -0.00006471    0.00024931
     atom   11 type  1   force =    -0.00000564   -0.00022178    0.00011192
     atom   12 type  1   force =    -0.00003743   -0.00021738    0.00080899
     atom   13 type  1   force =    -0.00021083   -0.00016385    0.00025827
     atom   14 type  1   force =     0.00010546   -0.00001177   -0.00068805
     atom   15 type  1   force =     0.00029737    0.00005590   -0.00079967
     atom   16 type  2   force =     0.00008092   -0.00013881   -0.00067145
     atom   17 type  2   force =    -0.00007337   -0.00006809    0.00019390
     atom   18 type  2   force =    -0.00022116   -0.00031205    0.00030795
     atom   19 type  1   force =    -0.00026214   -0.00029218   -0.00031978
     atom   20 type  1   force =     0.00050603    0.00000059    0.00003160
     atom   21 type  1   force =     0.00029089   -0.00015820   -0.00009577
     atom   22 type  1   force =    -0.00010036    0.00024547    0.00009486
     atom   23 type  1   force =     0.00044364   -0.00020632    0.00004232
     atom   24 type  1   force =    -0.00017566    0.00000017   -0.00004302
     atom   25 type  2   force =     0.00029295    0.00000041   -0.00057485
     atom   26 type  2   force =    -0.00002656   -0.00003529    0.00035625
     atom   27 type  2   force =    -0.00000034   -0.00006684    0.00097102
     atom   28 type  1   force =     0.00034987    0.00016199    0.00002541
     atom   29 type  1   force =    -0.00045931    0.00000052    0.00049567
     atom   30 type  1   force =    -0.00047199    0.00006565    0.00025040
     atom   31 type  1   force =     0.00010733    0.00001135   -0.00068796
     atom   32 type  1   force =    -0.00013936    0.00003165   -0.00054487
     atom   33 type  1   force =     0.00017108    0.00000027   -0.00020493
     atom   34 type  2   force =     0.00011124    0.00000026   -0.00044445
     atom   35 type  2   force =    -0.00022124    0.00031167    0.00030817
     atom   36 type  2   force =     0.00010554    0.00006781   -0.00048056
     atom   37 type  1   force =    -0.00014694    0.00044663   -0.00018406
     atom   38 type  1   force =     0.00004240   -0.00030531   -0.00027769
     atom   39 type  1   force =    -0.00026164    0.00029161   -0.00031960
     atom   40 type  1   force =     0.00044320    0.00020654    0.00004234
     atom   41 type  1   force =     0.00007394   -0.00020102   -0.00016137
     atom   42 type  1   force =    -0.00033542    0.00023265    0.00015876
     atom   43 type  2   force =    -0.00011095   -0.00002495   -0.00042730
     atom   44 type  2   force =     0.00000018    0.00006661    0.00097058
     atom   45 type  2   force =     0.00001903    0.00006730    0.00002490
     atom   46 type  1   force =    -0.00014063    0.00033537    0.00036643
     atom   47 type  1   force =    -0.00000704    0.00022083    0.00011179
     atom   48 type  1   force =     0.00035101   -0.00016321    0.00002512
     atom   49 type  1   force =    -0.00014003   -0.00003141   -0.00054473
     atom   50 type  1   force =     0.00005139    0.00011769   -0.00020981
     atom   51 type  1   force =     0.00029803   -0.00005733   -0.00080013
     atom   52 type  2   force =     0.00008025    0.00013853   -0.00067121
     atom   53 type  2   force =     0.00010543   -0.00006743   -0.00047996
     atom   54 type  2   force =     0.00012103    0.00005809    0.00031677
     atom   55 type  1   force =     0.00012121   -0.00016260   -0.00032352
     atom   56 type  1   force =    -0.00009979    0.00000066   -0.00025342
     atom   57 type  1   force =    -0.00014750   -0.00044537   -0.00018289
     atom   58 type  1   force =     0.00007462    0.00020084   -0.00016102
     atom   59 type  1   force =    -0.00001291   -0.00016148    0.00026415
     atom   60 type  1   force =    -0.00015800    0.00000004    0.00002840
     atom   61 type  2   force =    -0.00011519    0.00000014    0.00006215
     atom   62 type  2   force =     0.00001886   -0.00006762    0.00002490
     atom   63 type  2   force =     0.00001054   -0.00004187    0.00017706
     atom   64 type  1   force =    -0.00003742    0.00021698    0.00080923
     atom   65 type  1   force =     0.00033598    0.00000013    0.00092626
     atom   66 type  1   force =    -0.00014149   -0.00033513    0.00036565
     atom   67 type  1   force =     0.00005028   -0.00011782   -0.00021095
     atom   68 type  1   force =    -0.00021068    0.00016477    0.00025726
     atom   69 type  1   force =     0.00047707    0.00000122   -0.00001011
     atom   70 type  2   force =     0.00011845    0.00000022    0.00064097
     atom   71 type  2   force =     0.00012181   -0.00005790    0.00031659
     atom   72 type  2   force =    -0.00007323    0.00006799    0.00019437
     atom   73 type  3   force =    -0.00056098    0.00000215    0.00088956
     atom   74 type  4   force =    -0.00022291    0.00001179    0.00036668
     atom   75 type  4   force =    -0.00022184   -0.00001382    0.00036765
     atom   76 type  4   force =     0.00081092   -0.00000004   -0.00065368
     atom   77 type  4   force =    -0.00044477   -0.00000003   -0.00071050

     Total force =     0.004581     Total SCF correction =     0.000050
     Energy error            =      6.3E-05 Ry
     Gradient error          =      9.7E-04 Ry/Bohr

     bfgs converged in  39 scf cycles and  38 bfgs steps
     (criteria: energy <  1.0E-04 Ry, force <  1.0E-03 Ry/Bohr)

     End of BFGS Geometry Optimization

     Final energy             =  -12616.4661208266 Ry

     File tmp/CH4-H22_Rot45_hollow_/CH4-H22_Rot45_hollow_.bfgs deleted, as requested
Begin final coordinates

ATOMIC_POSITIONS (angstrom)
Cr              -1.5505150657        2.7646413060        8.1537555964
Cr               3.2387755235       -0.0018310784        8.1560773025
Cr               0.8246567347        1.3505002653        8.1560200594
Cr               1.6774199728        2.8226928199        6.0246477553
Cr              -0.6989784481        1.2915871206        6.0245586936
Cr               1.5385482624        0.0007721607        6.0250847901
N                0.0468120641       -0.0010745266        4.9842567949
N                2.4214296057        1.3709027577        7.0132014948
N                0.0464969865        2.7430712444        7.0096700193
Cr              -1.5981249694        2.8537864950       12.4285003232
Cr               3.3404215152        0.0023319668       12.4290214551
Cr               0.7732736541        1.2597013214       12.4233328250
Cr               1.6407562476        2.7634559033       10.3496711927
Cr              -0.7369157021        1.3534303121       10.3527850316
Cr               1.6071091847       -0.0029624932       10.3523447022
N                0.0458764631        0.0021708201        9.2403866995
N                2.4208966340        1.3709473484       11.4678990981
N                0.0483321659        2.7450864394       11.4716672286
Cr              -3.9236936418        6.8821356009        8.1566934115
Cr               0.8611925581        4.1148082849        8.1528659156
Cr              -1.5505165160        5.4649790514        8.1537567007
Cr              -0.6989774167        6.9380327327        6.0245589894
Cr              -3.0776384862        5.4068562330        6.0266324130
Cr              -0.8390347813        4.1148095474        6.0247746265
N               -2.3329973454        4.1148090292        4.9852314008
N                0.0464969643        5.4865467236        7.0096714171
N               -2.3291465656        6.8581425875        7.0091306099
Cr              -3.9785496365        6.9647131708       12.4300209818
Cr               0.9642060491        4.1148085507       12.4330305445
Cr              -1.5981258137        5.3758271472       12.4284946965
Cr              -0.7369207925        6.8761904452       10.3527844414
Cr              -3.1059813252        5.4698844193       10.3495257973
Cr              -0.7665854496        4.1148082883       10.3504562424
N               -2.3275665546        4.1148090263        9.2393572059
N                0.0483321646        5.4845338270       11.4716648577
N               -2.3295836113        6.8581174553       11.4759481949
Cr               3.2007168184        2.7630134517        8.1554920187
Cr               7.9901478211        0.0018442079        8.1560729470
Cr               5.5790442480        1.3474853011        8.1566929508
Cr               6.4251009771        2.8227629341        6.0266319462
Cr               4.0523047941        1.2917859470        6.0281013459
Cr               6.2899182760       -0.0007617283        6.0250834672
N                4.7981819460        0.0010859152        4.9842561050
N                7.1735911839        1.3714780379        7.0091315533
N                4.7976117049        2.7425212177        7.0160286697
Cr               3.1579661099        2.8436577782       12.4219188537
Cr               8.0917998556       -0.0023199039       12.4290212213
Cr               5.5241876674        1.2649110754       12.4300217567
Cr               6.3967606900        2.7597338486       10.3495265528
Cr               4.0160469093        1.3519117545       10.3492264809
Cr               6.3584768223        0.0029755040       10.3523467724
N                4.7972476408       -0.0021610887        9.2403862595
N                7.1731569500        1.3715005015       11.4759479899
N                4.8003409114        2.7431368629       11.4640990856
Cr               0.8246551900        6.8791198974        8.1560175409
Cr               5.6146814007        4.1148085713        8.1578401041
Cr               3.2007171228        5.4666020671        8.1554881164
Cr               4.0523035725        6.9378343656        6.0281010388
Cr               1.6774191439        5.4069280380        6.0246466820
Cr               3.9148754112        4.1148100622        6.0283219464
N                2.4248560646        4.1148099796        4.9839815806
N                4.7976126535        5.4870993558        7.0160290230
N                2.4214290242        6.8587172967        7.0132037080
Cr               0.7732740672        6.9699175866       12.4233292656
Cr               5.7158140376        4.1148091516       12.4224763085
Cr               3.1579695726        5.3859648432       12.4219214659
Cr               4.0160505893        6.8777078850       10.3492294103
Cr               1.6407579617        5.4661610094       10.3496752828
Cr               3.9825260303        4.1148073835       10.3474740786
N                2.4200652528        4.1148094179        9.2348246174
N                4.8003398687        5.4864810716       11.4641001475
N                2.4208977476        6.8586742418       11.4678978808
C                1.7032318421        4.1147475415       16.2256750261
H                2.1778938965        5.0121202416       16.6385142295
H                2.1778802313        3.2174009898       16.6385813786
H                0.6331242520        4.1147647024       16.4641952131
H                1.8373231116        4.1147053501       15.1328979792
End final coordinates



     Writing all to output data dir tmp/CH4-H22_Rot45_hollow_/CH4-H22_Rot45_hollow_.save/ :
     XML data file, charge density, pseudopotentials, collected wavefunctions
 
     init_run     :     18.70s CPU     19.52s WALL (       1 calls)
     electrons    :  66270.23s CPU  68038.24s WALL (      39 calls)
     update_pot   :     47.77s CPU     49.87s WALL (      38 calls)
     forces       :    402.98s CPU    417.33s WALL (      39 calls)
     force_dftd3  :      8.39s CPU      8.91s WALL (      39 calls)

     Called by init_run:
     wfcinit      :     14.53s CPU     14.90s WALL (       1 calls)
     potinit      :      1.03s CPU      1.18s WALL (       1 calls)
     hinit0       :      0.34s CPU      0.43s WALL (       1 calls)

     Called by electrons:
     c_bands      :  54629.47s CPU  55774.92s WALL (    1633 calls)
     sum_band     :   9190.99s CPU   9516.02s WALL (    1633 calls)
     v_of_rho     :    945.00s CPU   1012.11s WALL (    1668 calls)
     newd         :    715.46s CPU    920.83s WALL (    1668 calls)
     PAW_pot      :    607.52s CPU    615.01s WALL (    1706 calls)
     mix_rho      :    135.70s CPU    145.57s WALL (    1633 calls)
     energy_dftd3 :      4.52s CPU      4.55s WALL (      39 calls)

     Called by c_bands:
     init_us_2    :    937.55s CPU    950.47s WALL (   10032 calls)
     cegterg      :  51533.34s CPU  52649.94s WALL (    4899 calls)

     Called by *egterg:
     cdiaghg      :   1832.99s CPU   1853.92s WALL (   17510 calls)
     h_psi        :  25312.36s CPU  25801.63s WALL (   17639 calls)
     s_psi        :   5919.13s CPU   5981.01s WALL (   17639 calls)
     g_psi        :    110.52s CPU    111.93s WALL (   12737 calls)

     Called by h_psi:
     h_psi:calbec :   6007.77s CPU   6072.17s WALL (   17639 calls)
     vloc_psi     :  13172.21s CPU  13392.53s WALL (   17639 calls)
                                        0.00s GPU  (   17639 calls)
     add_vuspsi   :   5936.86s CPU   6001.66s WALL (   17639 calls)

     General routines
     calbec       :   9093.30s CPU   9188.69s WALL (   23120 calls)
     fft          :    745.72s CPU    806.05s WALL (   22077 calls)
     ffts         :     10.30s CPU     11.80s WALL (    3301 calls)
     fftw         :  13040.32s CPU  13249.05s WALL (12332344 calls)
     interpolate  :     55.24s CPU     61.13s WALL (    1668 calls)
 
     Parallel routines
 
     PWSCF        :     18h34m CPU     19h 4m WALL

 
   This run was terminated on:  15:35:32   9Jun2026            

=------------------------------------------------------------------------------=
   JOB DONE.
=------------------------------------------------------------------------------=
