
     Program PWSCF v.7.5 starts on  3Jun2026 at 13:27: 9 

     This program is part of the open-source Quantum ESPRESSO suite
     for quantum simulation of materials; please cite
         "P. Giannozzi et al., J. Phys.:Condens. Matter 21 395502 (2009);
         "P. Giannozzi et al., J. Phys.:Condens. Matter 29 465901 (2017);
         "P. Giannozzi et al., J. Chem. Phys. 152 154105 (2020);
          URL http://www.quantum-espresso.org", 
     in publications or presentations arising from this work. More details at
     http://www.quantum-espresso.org/quote

     Parallel version (MPI & OpenMP), running on      64 processor cores
     Number of MPI processes:                64
     Threads/MPI process:                     1

     MPI processes distributed on     1 nodes
     559465 MiB available memory on the printing compute node when the environment starts
 
     Reading input from generated_inputs/adsorcion/pw-CH4-H22_Rot0_ontop_.in
Warning: card &CELL ignored

     Current dimensions of program PWSCF are:
     Max number of different atomic species (ntypx) = 10
     Max number of k-points (npk) =  40000
     Max angular momentum in pseudopotentials (lmaxx) =  4
     file Cr.pbe-spn-kjpaw_psl.1.0.0.UPF: wavefunction(s)  3S 3P 3D renormalized
     file N.pbe-n-kjpaw_psl.1.0.0.UPF: wavefunction(s)  2S renormalized
     file C.pbe-n-kjpaw_psl.1.0.0.UPF: wavefunction(s)  2S 2P renormalized
     file H.pbe-kjpaw_psl.1.0.0.UPF: wavefunction(s)  1S renormalized
 
     K-points division:     npool     =       4
     R & G space division:  proc/nbgrp/npool/nimage =      16
     Subspace diagonalization in iterative solution of the eigenvalue problem:
     one sub-group per band group will be used
     scalapack distributed-memory algorithm (size of sub-group:  4*  4 procs)

 
     Parallelization info
     --------------------
     sticks:   dense  smooth     PW     G-vecs:    dense   smooth      PW
     Min        1166     388    102               281408    54158    7274
     Max        1167     389    103               281417    54165    7281
     Sum       18661    6217   1639              4502593   866593  116429
 
     Using Slab Decomposition
 


     bravais-lattice index     =            0
     lattice parameter (alat)  =      17.9576  a.u.
     unit-cell volume          =   10952.5767 (a.u.)^3
     number of atoms/cell      =           77
     number of atomic types    =            4
     number of electrons       =       800.00
     number of Kohn-Sham states=          480
     kinetic-energy cutoff     =      70.0000  Ry
     charge density cutoff     =     840.0000  Ry
     scf convergence threshold =      1.0E-08
     mixing beta               =       0.2000
     number of iterations used =            8  plain     mixing
     energy convergence thresh.=      1.0E-04
     force convergence thresh. =      1.0E-03
     Exchange-correlation= SLA  PW   PBX  PBC
                           (   1   4   3   4   0   0   0)
     nstep                     =          200


     celldm(1)=  17.957575  celldm(2)=   0.000000  celldm(3)=   0.000000
     celldm(4)=   0.000000  celldm(5)=   0.000000  celldm(6)=   0.000000

     crystal axes: (cart. coord. in units of alat)
               a(1) = (   1.000000   0.000000   0.000000 )  
               a(2) = (  -0.500000   0.866025   0.000000 )  
               a(3) = (   0.000000   0.000000   2.183951 )  

     reciprocal axes: (cart. coord. in units 2 pi/alat)
               b(1) = (  1.000000  0.577351  0.000000 )  
               b(2) = (  0.000000  1.154701  0.000000 )  
               b(3) = (  0.000000  0.000000  0.457886 )  


     PseudoPot. # 1 for Cr read from file:
     pseudo/Cr.pbe-spn-kjpaw_psl.1.0.0.UPF
     MD5 check sum: 198f1a2427a48552563eee314eba32ba
     Pseudo is Projector augmented-wave + core cor, Zval = 14.0
     Generated using &quot;atomic&quot; code by A. Dal Corso  v.6.3
     Shape of augmentation charge: PSQ
     Using radial grid of 1183 points,  6 beta functions with: 
                l(1) =   0
                l(2) =   0
                l(3) =   1
                l(4) =   1
                l(5) =   2
                l(6) =   2
     Q(r) pseudized with 0 coefficients 


     PseudoPot. # 2 for N  read from file:
     pseudo/N.pbe-n-kjpaw_psl.1.0.0.UPF
     MD5 check sum: 14c48229446f9f2d411169a3abcbc3fa
     Pseudo is Projector augmented-wave + core cor, Zval =  5.0
     Generated using &quot;atomic&quot; code by A. Dal Corso  v.6.3
     Shape of augmentation charge: PSQ
     Using radial grid of 1085 points,  4 beta functions with: 
                l(1) =   0
                l(2) =   0
                l(3) =   1
                l(4) =   1
     Q(r) pseudized with 0 coefficients 


     PseudoPot. # 3 for C  read from file:
     pseudo/C.pbe-n-kjpaw_psl.1.0.0.UPF
     MD5 check sum: 5f16ad9a65e90284d1d834d4ab3b0f7d
     Pseudo is Projector augmented-wave + core cor, Zval =  4.0
     Generated using &quot;atomic&quot; code by A. Dal Corso  v.6.3
     Shape of augmentation charge: PSQ
     Using radial grid of 1073 points,  4 beta functions with: 
                l(1) =   0
                l(2) =   0
                l(3) =   1
                l(4) =   1
     Q(r) pseudized with 0 coefficients 


     PseudoPot. # 4 for H  read from file:
     pseudo/H.pbe-kjpaw_psl.1.0.0.UPF
     MD5 check sum: d81a744832360e4a8af0b0b5b123bc2a
     Pseudo is Projector augmented-wave, Zval =  1.0
     Generated using &quot;atomic&quot; code by A. Dal Corso  v.6.3MaX
     Shape of augmentation charge: PSQ
     Using radial grid of  929 points,  2 beta functions with: 
                l(1) =   0
                l(2) =   0
     Q(r) pseudized with 0 coefficients 


     atomic species   valence    mass     pseudopotential
     Cr               14.00    51.99610     Cr( 1.00)
     N                 5.00    14.00670     N ( 1.00)
     C                 4.00    12.01100     C ( 1.00)
     H                 1.00     1.00800     H ( 1.00)

     No symmetry found



   Cartesian axes

     site n.     atom                  positions (alat units)
         1        Cr     tau(   1) = (  -0.1681591   0.2912601   0.8673998  )
         2        Cr     tau(   2) = (   0.3363182   0.0000000   0.8673998  )
         3        Cr     tau(   3) = (   0.0818405   0.1417518   0.8673993  )
         4        Cr     tau(   4) = (   0.1684970   0.2918454   0.6425759  )
         5        Cr     tau(   5) = (  -0.0815030   0.1411673   0.6425759  )
         6        Cr     tau(   6) = (   0.1630059   0.0000000   0.6425759  )
         7        N      tau(   7) = (   0.0000000   0.0000000   0.5261641  )
         8        N      tau(   8) = (   0.2500000   0.1443376   0.7485579  )
         9        N      tau(   9) = (   0.0000000   0.2886752   0.7485579  )
        10        Cr     tau(  10) = (  -0.1730001   0.2996450   1.3148727  )
        11        Cr     tau(  11) = (   0.3460003   0.0000000   1.3148727  )
        12        Cr     tau(  12) = (   0.0770029   0.1333729   1.3148745  )
        13        Cr     tau(  13) = (   0.1677092   0.2904808   1.0968932  )
        14        Cr     tau(  14) = (  -0.0822901   0.1425306   1.0968938  )
        15        Cr     tau(  15) = (   0.1645802   0.0000000   1.0968938  )
        16        N      tau(  16) = (   0.0000000   0.0000000   0.9808490  )
        17        N      tau(  17) = (   0.2500004   0.1443372   1.2145625  )
        18        N      tau(  18) = (  -0.0000005   0.2886753   1.2145625  )
        19        Cr     tau(  19) = (  -0.4181595   0.7242736   0.8673993  )
        20        Cr     tau(  20) = (   0.0863184   0.4330126   0.8674001  )
        21        Cr     tau(  21) = (  -0.1681593   0.5747652   0.8674001  )
        22        Cr     tau(  22) = (  -0.0815030   0.7248581   0.6425759  )
        23        Cr     tau(  23) = (  -0.3315030   0.5741800   0.6425759  )
        24        Cr     tau(  24) = (  -0.0869941   0.4330127   0.6425759  )
        25        N      tau(  25) = (  -0.2500000   0.4330127   0.5261641  )
        26        N      tau(  26) = (   0.0000000   0.5773503   0.7485581  )
        27        N      tau(  27) = (  -0.2500000   0.7216878   0.7485579  )
        28        Cr     tau(  28) = (  -0.4229971   0.7326525   1.3148745  )
        29        Cr     tau(  29) = (   0.0959968   0.4330121   1.3148749  )
        30        Cr     tau(  30) = (  -0.1729989   0.5663837   1.3148749  )
        31        Cr     tau(  31) = (  -0.0822898   0.7234940   1.0968932  )
        32        Cr     tau(  32) = (  -0.3322908   0.5755446   1.0968932  )
        33        Cr     tau(  33) = (  -0.0854193   0.4330133   1.0968932  )
        34        N      tau(  34) = (  -0.2500001   0.4330128   0.9808490  )
        35        N      tau(  35) = (   0.0000000   0.5773503   1.2145635  )
        36        N      tau(  36) = (  -0.2499996   0.7216882   1.2145625  )
        37        Cr     tau(  37) = (   0.3318407   0.2912602   0.8674001  )
        38        Cr     tau(  38) = (   0.8363191   0.0000000   0.8673993  )
        39        Cr     tau(  39) = (   0.5818409   0.1417524   0.8674001  )
        40        Cr     tau(  40) = (   0.6684970   0.2918454   0.6425759  )
        41        Cr     tau(  41) = (   0.4184970   0.1411673   0.6425759  )
        42        Cr     tau(  42) = (   0.6630059   0.0000000   0.6425759  )
        43        N      tau(  43) = (   0.5000000   0.0000000   0.5261641  )
        44        N      tau(  44) = (   0.7500000   0.1443376   0.7485579  )
        45        N      tau(  45) = (   0.5000000   0.2886751   0.7485581  )
        46        Cr     tau(  46) = (   0.3270011   0.2996417   1.3148749  )
        47        Cr     tau(  47) = (   0.8459942   0.0000000   1.3148745  )
        48        Cr     tau(  48) = (   0.5770021   0.1333704   1.3148749  )
        49        Cr     tau(  49) = (   0.6677091   0.2904819   1.0968932  )
        50        Cr     tau(  50) = (   0.4177102   0.1425314   1.0968932  )
        51        Cr     tau(  51) = (   0.6645817   0.0000000   1.0968932  )
        52        N      tau(  52) = (   0.5000001   0.0000000   0.9808490  )
        53        N      tau(  53) = (   0.7500001   0.1443381   1.2145625  )
        54        N      tau(  54) = (   0.5000000   0.2886751   1.2145635  )
        55        Cr     tau(  55) = (   0.0818409   0.7242730   0.8674001  )
        56        Cr     tau(  56) = (   0.5863184   0.4330128   0.8674001  )
        57        Cr     tau(  57) = (   0.3318409   0.5747653   0.8673998  )
        58        Cr     tau(  58) = (   0.4184970   0.7248581   0.6425759  )
        59        Cr     tau(  59) = (   0.1684970   0.5741800   0.6425759  )
        60        Cr     tau(  60) = (   0.4130059   0.4330127   0.6425759  )
        61        N      tau(  61) = (   0.2500000   0.4330127   0.5261641  )
        62        N      tau(  62) = (   0.5000000   0.5773502   0.7485579  )
        63        N      tau(  63) = (   0.2500000   0.7216878   0.7485579  )
        64        Cr     tau(  64) = (   0.0770021   0.7326550   1.3148749  )
        65        Cr     tau(  65) = (   0.5959968   0.4330133   1.3148749  )
        66        Cr     tau(  66) = (   0.3269999   0.5663804   1.3148727  )
        67        Cr     tau(  67) = (   0.4177099   0.7234948   1.0968938  )
        68        Cr     tau(  68) = (   0.1677091   0.5755435   1.0968932  )
        69        Cr     tau(  69) = (   0.4145807   0.4330121   1.0968932  )
        70        N      tau(  70) = (   0.2499999   0.4330126   0.9808490  )
        71        N      tau(  71) = (   0.4999995   0.5773501   1.2145625  )
        72        N      tau(  72) = (   0.2500001   0.7216873   1.2145625  )
        73        C      tau(  73) = (   0.0959968   0.4330121   1.5915635  )
        74        H      tau(  74) = (   0.1622198   0.4992351   1.6577865  )
        75        H      tau(  75) = (   0.0297738   0.3667891   1.6577865  )
        76        H      tau(  76) = (   0.0297738   0.4992351   1.5253405  )
        77        H      tau(  77) = (   0.1622198   0.3667891   1.5253405  )

     --------------------------------------------
     DFT-D3 Dispersion Correction (3-body terms):
     --------------------------------------------
       Reference C6 values for interpolation: 

         atom   Coordination number   C6
         H          0.912             6.05
         H          0.000            15.18
         C          0.000            98.23
         C          0.987            86.49
         C          1.998            58.72
         C          2.999            51.56
         C          3.984            36.41
         N          0.000            50.54
         N          0.994            44.25
         N          2.014            39.35
         N          2.990            31.16
         Cr         0.000          1381.48
         Cr         1.827           571.38
         Cr        10.619           306.69

       Values used:

         atom   Coordination number  R0_AB[au]  C6      C8
         Cr        12.627            3.252    306.69  28303.74
         Cr        12.627            3.252    306.69  28303.74
         Cr        12.627            3.252    306.69  28303.74
         Cr        10.143            3.252    306.69  28303.74
         Cr        10.143            3.252    306.69  28303.74
         Cr        10.143            3.252    306.69  28303.74
         N          3.022            2.478     31.29    690.36
         N          6.023            2.478     31.16    687.49
         N          6.023            2.478     31.16    687.49
         Cr         9.075            3.252    306.69  28303.74
         Cr         9.071            3.252    306.69  28303.74
         Cr         9.076            3.252    306.69  28303.74
         Cr        12.748            3.252    306.69  28303.74
         Cr        12.748            3.252    306.69  28303.74
         Cr        12.748            3.252    306.69  28303.74
         N          6.047            2.478     31.16    687.49
         N          6.032            2.478     31.16    687.49
         N          6.033            2.478     31.16    687.49
         Cr        12.627            3.252    306.69  28303.74
         Cr        12.627            3.252    306.69  28303.74
         Cr        12.627            3.252    306.69  28303.74
         Cr        10.143            3.252    306.69  28303.74
         Cr        10.143            3.252    306.69  28303.74
         Cr        10.143            3.252    306.69  28303.74
         N          3.022            2.478     31.29    690.36
         N          6.023            2.478     31.16    687.49
         N          6.023            2.478     31.16    687.49
         Cr         9.071            3.252    306.69  28303.74
         Cr         9.550            3.252    306.69  28303.74
         Cr         9.078            3.252    306.69  28303.74
         Cr        12.748            3.252    306.69  28303.74
         Cr        12.748            3.252    306.69  28303.74
         Cr        12.748            3.252    306.69  28303.74
         N          6.047            2.478     31.16    687.49
         N          6.033            2.478     31.16    687.49
         N          6.032            2.478     31.16    687.49
         Cr        12.627            3.252    306.69  28303.74
         Cr        12.627            3.252    306.69  28303.74
         Cr        12.627            3.252    306.69  28303.74
         Cr        10.143            3.252    306.69  28303.74
         Cr        10.143            3.252    306.69  28303.74
         Cr        10.143            3.252    306.69  28303.74
         N          3.022            2.478     31.29    690.36
         N          6.023            2.478     31.16    687.49
         N          6.023            2.478     31.16    687.49
         Cr         9.088            3.252    306.69  28303.74
         Cr         9.071            3.252    306.69  28303.74
         Cr         9.071            3.252    306.69  28303.74
         Cr        12.748            3.252    306.69  28303.74
         Cr        12.748            3.252    306.69  28303.74
         Cr        12.748            3.252    306.69  28303.74
         N          6.047            2.478     31.16    687.49
         N          6.032            2.478     31.16    687.49
         N          6.032            2.478     31.16    687.49
         Cr        12.627            3.252    306.69  28303.74
         Cr        12.627            3.252    306.69  28303.74
         Cr        12.627            3.252    306.69  28303.74
         Cr        10.143            3.252    306.69  28303.74
         Cr        10.143            3.252    306.69  28303.74
         Cr        10.143            3.252    306.69  28303.74
         N          3.022            2.478     31.29    690.36
         N          6.023            2.478     31.16    687.49
         N          6.023            2.478     31.16    687.49
         Cr         9.076            3.252    306.69  28303.74
         Cr         9.071            3.252    306.69  28303.74
         Cr         9.079            3.252    306.69  28303.74
         Cr        12.748            3.252    306.69  28303.74
         Cr        12.748            3.252    306.69  28303.74
         Cr        12.748            3.252    306.69  28303.74
         N          6.047            2.478     31.16    687.49
         N          6.032            2.478     31.16    687.49
         N          6.032            2.478     31.16    687.49
         C          4.273            2.750     36.44   1053.95
         H          0.998            2.062      6.18     74.75
         H          0.997            2.062      6.18     74.75
         H          1.109            2.062      6.11     73.88
         H          1.116            2.062      6.11     73.84

         Molecular C6 ( Ry / a.u.^6 ) =    974422.34


     number of k points=    10  Methfessel-Paxton smearing, width (Ry)=  0.0200
                       cart. coord. in units 2pi/alat
        k(    1) = (   0.0000000   0.0000000   0.0000000), wk =   0.1250000
        k(    2) = (   0.0000000   0.2886753   0.0000000), wk =   0.2500000
        k(    3) = (   0.0000000  -0.5773505   0.0000000), wk =   0.1250000
        k(    4) = (   0.2500000   0.4330129   0.0000000), wk =   0.2500000
        k(    5) = (  -0.2500000   0.1443376   0.0000000), wk =   0.2500000
        k(    6) = (   0.2500000   0.1443376   0.0000000), wk =   0.2500000
        k(    7) = (   0.5000000  -0.2886753   0.0000000), wk =   0.1250000
        k(    8) = (  -0.5000000  -0.2886753   0.0000000), wk =   0.1250000
        k(    9) = (  -0.2500000   0.4330129   0.0000000), wk =   0.2500000
        k(   10) = (   0.5000000  -0.0000000   0.0000000), wk =   0.2500000

     Dense  grid:  4502593 G-vectors     FFT dimensions: ( 180, 180, 375)

     Smooth grid:   866593 G-vectors     FFT dimensions: (  96,  96, 216)

     Estimated max dynamical RAM per process >     867.27 MB

     Estimated total dynamical RAM >      50.98 GB

     Initial potential from superposition of free atoms

     starting charge     799.9627, renormalised to     800.0000

     negative rho (up, down):  3.831E-04 0.000E+00
     Starting wfcs are  584 randomized atomic wfcs
     Checking if some PAW data can be deallocated... 

     total cpu time spent up to now is       19.7 secs

     Self-consistent Calculation

     iteration #  1     ecut=    70.00 Ry     beta= 0.20
     Davidson diagonalization with overlap
     ethr =  1.00E-02,  avg # of iterations =  2.7

     negative rho (up, down):  1.514E-04 0.000E+00

     total cpu time spent up to now is       65.6 secs

     total energy              =  -12610.65447479 Ry
     estimated scf accuracy    <      29.17027152 Ry

     iteration #  2     ecut=    70.00 Ry     beta= 0.20
     Davidson diagonalization with overlap
     ethr =  3.65E-03,  avg # of iterations =  6.3

     negative rho (up, down):  4.524E-04 0.000E+00

     total cpu time spent up to now is      121.4 secs

     total energy              =  -12600.29002083 Ry
     estimated scf accuracy    <     665.60532730 Ry

     iteration #  3     ecut=    70.00 Ry     beta= 0.20
     Davidson diagonalization with overlap
     ethr =  3.65E-03,  avg # of iterations =  2.8

     negative rho (up, down):  6.625E-04 0.000E+00

     total cpu time spent up to now is      162.8 secs

     total energy              =  -12608.89641141 Ry
     estimated scf accuracy    <     484.53252255 Ry

     iteration #  4     ecut=    70.00 Ry     beta= 0.20
     Davidson diagonalization with overlap
     ethr =  3.65E-03,  avg # of iterations =  1.9

     negative rho (up, down):  3.273E-04 0.000E+00

     total cpu time spent up to now is      202.6 secs

     total energy              =  -12614.81187798 Ry
     estimated scf accuracy    <      87.95369877 Ry

     iteration #  5     ecut=    70.00 Ry     beta= 0.20
     Davidson diagonalization with overlap
     ethr =  3.65E-03,  avg # of iterations =  1.2

     negative rho (up, down):  3.939E-04 0.000E+00

     total cpu time spent up to now is      240.1 secs

     total energy              =  -12615.50958016 Ry
     estimated scf accuracy    <      17.88543733 Ry

     iteration #  6     ecut=    70.00 Ry     beta= 0.20
     Davidson diagonalization with overlap
     ethr =  2.24E-03,  avg # of iterations =  1.5

     negative rho (up, down):  4.762E-04 0.000E+00

     total cpu time spent up to now is      279.8 secs

     total energy              =  -12616.19118319 Ry
     estimated scf accuracy    <       3.26577939 Ry

     iteration #  7     ecut=    70.00 Ry     beta= 0.20
     Davidson diagonalization with overlap
     ethr =  4.08E-04,  avg # of iterations = 12.2

     negative rho (up, down):  4.740E-04 0.000E+00

     total cpu time spent up to now is      331.5 secs

     total energy              =  -12616.36166184 Ry
     estimated scf accuracy    <       2.20838153 Ry

     iteration #  8     ecut=    70.00 Ry     beta= 0.20
     Davidson diagonalization with overlap
     ethr =  2.76E-04,  avg # of iterations =  2.0

     negative rho (up, down):  4.950E-04 0.000E+00

     total cpu time spent up to now is      371.7 secs

     total energy              =  -12616.38388820 Ry
     estimated scf accuracy    <       0.73216621 Ry

     iteration #  9     ecut=    70.00 Ry     beta= 0.20
     Davidson diagonalization with overlap
     c_bands:  1 eigenvalues not converged
     ethr =  9.15E-05,  avg # of iterations =  4.8

     negative rho (up, down):  4.173E-04 0.000E+00

     total cpu time spent up to now is      415.9 secs

     total energy              =  -12616.37600059 Ry
     estimated scf accuracy    <       0.75434209 Ry

     iteration # 10     ecut=    70.00 Ry     beta= 0.20
     Davidson diagonalization with overlap
     ethr =  9.15E-05,  avg # of iterations =  1.1

     negative rho (up, down):  3.692E-04 0.000E+00

     total cpu time spent up to now is      452.3 secs

     total energy              =  -12616.37185375 Ry
     estimated scf accuracy    <       0.65574805 Ry

     iteration # 11     ecut=    70.00 Ry     beta= 0.20
     Davidson diagonalization with overlap
     ethr =  8.20E-05,  avg # of iterations =  1.9

     negative rho (up, down):  3.904E-04 0.000E+00

     total cpu time spent up to now is      491.9 secs

     total energy              =  -12616.38783681 Ry
     estimated scf accuracy    <       0.20740013 Ry

     iteration # 12     ecut=    70.00 Ry     beta= 0.20
     Davidson diagonalization with overlap
     ethr =  2.59E-05,  avg # of iterations = 14.4

     negative rho (up, down):  2.786E-04 0.000E+00

     total cpu time spent up to now is      548.2 secs

     total energy              =  -12616.38166832 Ry
     estimated scf accuracy    <       0.57798997 Ry

     iteration # 13     ecut=    70.00 Ry     beta= 0.20
     Davidson diagonalization with overlap
     ethr =  2.59E-05,  avg # of iterations =  1.0

     negative rho (up, down):  2.427E-04 0.000E+00

     total cpu time spent up to now is      583.5 secs

     total energy              =  -12616.39122703 Ry
     estimated scf accuracy    <       0.11677457 Ry

     iteration # 14     ecut=    70.00 Ry     beta= 0.20
     Davidson diagonalization with overlap
     ethr =  1.46E-05,  avg # of iterations =  1.2

     negative rho (up, down):  2.096E-04 0.000E+00

     total cpu time spent up to now is      620.9 secs

     total energy              =  -12616.39184962 Ry
     estimated scf accuracy    <       0.04598377 Ry

     iteration # 15     ecut=    70.00 Ry     beta= 0.20
     Davidson diagonalization with overlap
     ethr =  5.75E-06,  avg # of iterations =  2.3

     negative rho (up, down):  1.952E-04 0.000E+00

     total cpu time spent up to now is      661.7 secs

     total energy              =  -12616.39077417 Ry
     estimated scf accuracy    <       0.19047001 Ry

     iteration # 16     ecut=    70.00 Ry     beta= 0.20
     Davidson diagonalization with overlap
     ethr =  5.75E-06,  avg # of iterations =  1.0

     negative rho (up, down):  1.954E-04 0.000E+00

     total cpu time spent up to now is      697.0 secs

     total energy              =  -12616.39302963 Ry
     estimated scf accuracy    <       0.03879367 Ry

     iteration # 17     ecut=    70.00 Ry     beta= 0.20
     Davidson diagonalization with overlap
     ethr =  4.85E-06,  avg # of iterations =  1.6

     negative rho (up, down):  1.983E-04 0.000E+00

     total cpu time spent up to now is      736.3 secs

     total energy              =  -12616.39301796 Ry
     estimated scf accuracy    <       0.05603389 Ry

     iteration # 18     ecut=    70.00 Ry     beta= 0.20
     Davidson diagonalization with overlap
     ethr =  4.85E-06,  avg # of iterations =  1.1

     negative rho (up, down):  1.998E-04 0.000E+00

     total cpu time spent up to now is      772.6 secs

     total energy              =  -12616.39382061 Ry
     estimated scf accuracy    <       0.04711285 Ry

     iteration # 19     ecut=    70.00 Ry     beta= 0.20
     Davidson diagonalization with overlap
     ethr =  4.85E-06,  avg # of iterations =  1.1

     negative rho (up, down):  2.012E-04 0.000E+00

     total cpu time spent up to now is      809.0 secs

     total energy              =  -12616.39452769 Ry
     estimated scf accuracy    <       0.01059802 Ry

     iteration # 20     ecut=    70.00 Ry     beta= 0.20
     Davidson diagonalization with overlap
     ethr =  1.32E-06,  avg # of iterations =  1.8

     negative rho (up, down):  2.034E-04 0.000E+00

     total cpu time spent up to now is      848.7 secs

     total energy              =  -12616.39456935 Ry
     estimated scf accuracy    <       0.01184222 Ry

     iteration # 21     ecut=    70.00 Ry     beta= 0.20
     Davidson diagonalization with overlap
     ethr =  1.32E-06,  avg # of iterations =  1.1

     negative rho (up, down):  2.073E-04 0.000E+00

     total cpu time spent up to now is      885.1 secs

     total energy              =  -12616.39488552 Ry
     estimated scf accuracy    <       0.00393893 Ry

     iteration # 22     ecut=    70.00 Ry     beta= 0.20
     Davidson diagonalization with overlap
     ethr =  4.92E-07,  avg # of iterations =  1.9

     negative rho (up, down):  2.072E-04 0.000E+00

     total cpu time spent up to now is      924.9 secs

     total energy              =  -12616.39476164 Ry
     estimated scf accuracy    <       0.01160090 Ry

     iteration # 23     ecut=    70.00 Ry     beta= 0.20
     Davidson diagonalization with overlap
     ethr =  4.92E-07,  avg # of iterations =  1.8

     negative rho (up, down):  2.099E-04 0.000E+00

     total cpu time spent up to now is      964.6 secs

     total energy              =  -12616.39502765 Ry
     estimated scf accuracy    <       0.00389386 Ry

     iteration # 24     ecut=    70.00 Ry     beta= 0.20
     Davidson diagonalization with overlap
     ethr =  4.87E-07,  avg # of iterations =  1.1

     negative rho (up, down):  2.109E-04 0.000E+00

     total cpu time spent up to now is     1000.8 secs

     total energy              =  -12616.39508305 Ry
     estimated scf accuracy    <       0.00254469 Ry

     iteration # 25     ecut=    70.00 Ry     beta= 0.20
     Davidson diagonalization with overlap
     ethr =  3.18E-07,  avg # of iterations =  1.0

     negative rho (up, down):  2.109E-04 0.000E+00

     total cpu time spent up to now is     1036.2 secs

     total energy              =  -12616.39496923 Ry
     estimated scf accuracy    <       0.00756429 Ry

     iteration # 26     ecut=    70.00 Ry     beta= 0.20
     Davidson diagonalization with overlap
     ethr =  3.18E-07,  avg # of iterations =  1.2

     negative rho (up, down):  2.116E-04 0.000E+00

     total cpu time spent up to now is     1073.7 secs

     total energy              =  -12616.39507052 Ry
     estimated scf accuracy    <       0.00412259 Ry

     iteration # 27     ecut=    70.00 Ry     beta= 0.20
     Davidson diagonalization with overlap
     ethr =  3.18E-07,  avg # of iterations =  1.0

     negative rho (up, down):  2.123E-04 0.000E+00

     total cpu time spent up to now is     1108.9 secs

     total energy              =  -12616.39509143 Ry
     estimated scf accuracy    <       0.00645939 Ry

     iteration # 28     ecut=    70.00 Ry     beta= 0.20
     Davidson diagonalization with overlap
     ethr =  3.18E-07,  avg # of iterations =  1.0

     negative rho (up, down):  2.129E-04 0.000E+00

     total cpu time spent up to now is     1144.1 secs

     total energy              =  -12616.39513130 Ry
     estimated scf accuracy    <       0.00289918 Ry

     iteration # 29     ecut=    70.00 Ry     beta= 0.20
     Davidson diagonalization with overlap
     ethr =  3.18E-07,  avg # of iterations =  1.0

     negative rho (up, down):  2.131E-04 0.000E+00

     total cpu time spent up to now is     1179.4 secs

     total energy              =  -12616.39518644 Ry
     estimated scf accuracy    <       0.00064557 Ry

     iteration # 30     ecut=    70.00 Ry     beta= 0.20
     Davidson diagonalization with overlap
     ethr =  8.07E-08,  avg # of iterations =  1.0

     negative rho (up, down):  2.134E-04 0.000E+00

     total cpu time spent up to now is     1214.8 secs

     total energy              =  -12616.39518741 Ry
     estimated scf accuracy    <       0.00059393 Ry

     iteration # 31     ecut=    70.00 Ry     beta= 0.20
     Davidson diagonalization with overlap
     ethr =  7.42E-08,  avg # of iterations =  1.0

     negative rho (up, down):  2.129E-04 0.000E+00

     total cpu time spent up to now is     1250.0 secs

     total energy              =  -12616.39521343 Ry
     estimated scf accuracy    <       0.00041994 Ry

     iteration # 32     ecut=    70.00 Ry     beta= 0.20
     Davidson diagonalization with overlap
     ethr =  5.25E-08,  avg # of iterations =  1.0

     negative rho (up, down):  2.134E-04 0.000E+00

     total cpu time spent up to now is     1285.4 secs

     total energy              =  -12616.39520096 Ry
     estimated scf accuracy    <       0.00052761 Ry

     iteration # 33     ecut=    70.00 Ry     beta= 0.20
     Davidson diagonalization with overlap
     ethr =  5.25E-08,  avg # of iterations =  1.0

     negative rho (up, down):  2.133E-04 0.000E+00

     total cpu time spent up to now is     1320.5 secs

     total energy              =  -12616.39521572 Ry
     estimated scf accuracy    <       0.00037095 Ry

     iteration # 34     ecut=    70.00 Ry     beta= 0.20
     Davidson diagonalization with overlap
     ethr =  4.64E-08,  avg # of iterations =  1.0

     negative rho (up, down):  2.131E-04 0.000E+00

     total cpu time spent up to now is     1355.9 secs

     total energy              =  -12616.39522550 Ry
     estimated scf accuracy    <       0.00016703 Ry

     iteration # 35     ecut=    70.00 Ry     beta= 0.20
     Davidson diagonalization with overlap
     ethr =  2.09E-08,  avg # of iterations =  1.0

     negative rho (up, down):  2.130E-04 0.000E+00

     total cpu time spent up to now is     1391.0 secs

     total energy              =  -12616.39522034 Ry
     estimated scf accuracy    <       0.00048044 Ry

     iteration # 36     ecut=    70.00 Ry     beta= 0.20
     Davidson diagonalization with overlap
     ethr =  2.09E-08,  avg # of iterations =  1.9

     negative rho (up, down):  2.130E-04 0.000E+00

     total cpu time spent up to now is     1431.1 secs

     total energy              =  -12616.39521652 Ry
     estimated scf accuracy    <       0.00077715 Ry

     iteration # 37     ecut=    70.00 Ry     beta= 0.20
     Davidson diagonalization with overlap
     ethr =  2.09E-08,  avg # of iterations =  1.0

     negative rho (up, down):  2.131E-04 0.000E+00

     total cpu time spent up to now is     1466.4 secs

     total energy              =  -12616.39522457 Ry
     estimated scf accuracy    <       0.00072136 Ry

     iteration # 38     ecut=    70.00 Ry     beta= 0.20
     Davidson diagonalization with overlap
     ethr =  2.09E-08,  avg # of iterations =  1.0

     negative rho (up, down):  2.132E-04 0.000E+00

     total cpu time spent up to now is     1501.6 secs

     total energy              =  -12616.39522589 Ry
     estimated scf accuracy    <       0.00027274 Ry

     iteration # 39     ecut=    70.00 Ry     beta= 0.20
     Davidson diagonalization with overlap
     ethr =  2.09E-08,  avg # of iterations =  1.0

     negative rho (up, down):  2.132E-04 0.000E+00

     total cpu time spent up to now is     1537.0 secs

     total energy              =  -12616.39523192 Ry
     estimated scf accuracy    <       0.00022387 Ry

     iteration # 40     ecut=    70.00 Ry     beta= 0.20
     Davidson diagonalization with overlap
     ethr =  2.09E-08,  avg # of iterations =  1.0

     negative rho (up, down):  2.132E-04 0.000E+00

     total cpu time spent up to now is     1572.2 secs

     total energy              =  -12616.39523218 Ry
     estimated scf accuracy    <       0.00016033 Ry

     iteration # 41     ecut=    70.00 Ry     beta= 0.20
     Davidson diagonalization with overlap
     ethr =  2.00E-08,  avg # of iterations =  1.0

     negative rho (up, down):  2.132E-04 0.000E+00

     total cpu time spent up to now is     1607.5 secs

     total energy              =  -12616.39523508 Ry
     estimated scf accuracy    <       0.00019708 Ry

     iteration # 42     ecut=    70.00 Ry     beta= 0.20
     Davidson diagonalization with overlap
     ethr =  2.00E-08,  avg # of iterations =  1.0

     negative rho (up, down):  2.132E-04 0.000E+00

     total cpu time spent up to now is     1642.8 secs

     total energy              =  -12616.39523681 Ry
     estimated scf accuracy    <       0.00007627 Ry

     iteration # 43     ecut=    70.00 Ry     beta= 0.20
     Davidson diagonalization with overlap
     ethr =  9.53E-09,  avg # of iterations =  1.0

     negative rho (up, down):  2.132E-04 0.000E+00

     total cpu time spent up to now is     1678.1 secs

     total energy              =  -12616.39523645 Ry
     estimated scf accuracy    <       0.00011826 Ry

     iteration # 44     ecut=    70.00 Ry     beta= 0.20
     Davidson diagonalization with overlap
     ethr =  9.53E-09,  avg # of iterations =  1.0

     negative rho (up, down):  2.132E-04 0.000E+00

     total cpu time spent up to now is     1713.5 secs

     total energy              =  -12616.39523990 Ry
     estimated scf accuracy    <       0.00002744 Ry

     iteration # 45     ecut=    70.00 Ry     beta= 0.20
     Davidson diagonalization with overlap
     ethr =  3.43E-09,  avg # of iterations =  1.0

     negative rho (up, down):  2.133E-04 0.000E+00

     total cpu time spent up to now is     1748.8 secs

     total energy              =  -12616.39524121 Ry
     estimated scf accuracy    <       0.00004204 Ry

     iteration # 46     ecut=    70.00 Ry     beta= 0.20
     Davidson diagonalization with overlap
     ethr =  3.43E-09,  avg # of iterations =  1.0

     negative rho (up, down):  2.133E-04 0.000E+00

     total cpu time spent up to now is     1784.1 secs

     total energy              =  -12616.39524031 Ry
     estimated scf accuracy    <       0.00005495 Ry

     iteration # 47     ecut=    70.00 Ry     beta= 0.20
     Davidson diagonalization with overlap
     ethr =  3.43E-09,  avg # of iterations =  1.0

     negative rho (up, down):  2.133E-04 0.000E+00

     total cpu time spent up to now is     1819.3 secs

     total energy              =  -12616.39524101 Ry
     estimated scf accuracy    <       0.00005530 Ry

     iteration # 48     ecut=    70.00 Ry     beta= 0.20
     Davidson diagonalization with overlap
     ethr =  3.43E-09,  avg # of iterations =  1.0

     negative rho (up, down):  2.133E-04 0.000E+00

     total cpu time spent up to now is     1854.6 secs

     total energy              =  -12616.39524085 Ry
     estimated scf accuracy    <       0.00002234 Ry

     iteration # 49     ecut=    70.00 Ry     beta= 0.20
     Davidson diagonalization with overlap
     ethr =  2.79E-09,  avg # of iterations =  1.0

     negative rho (up, down):  2.134E-04 0.000E+00

     total cpu time spent up to now is     1889.8 secs

     total energy              =  -12616.39524138 Ry
     estimated scf accuracy    <       0.00008515 Ry

     iteration # 50     ecut=    70.00 Ry     beta= 0.20
     Davidson diagonalization with overlap
     ethr =  2.79E-09,  avg # of iterations =  1.0

     negative rho (up, down):  2.135E-04 0.000E+00

     total cpu time spent up to now is     1925.2 secs

     total energy              =  -12616.39524216 Ry
     estimated scf accuracy    <       0.00003821 Ry

     iteration # 51     ecut=    70.00 Ry     beta= 0.20
     Davidson diagonalization with overlap
     ethr =  2.79E-09,  avg # of iterations =  1.0

     negative rho (up, down):  2.134E-04 0.000E+00

     total cpu time spent up to now is     1960.3 secs

     total energy              =  -12616.39524195 Ry
     estimated scf accuracy    <       0.00002334 Ry

     iteration # 52     ecut=    70.00 Ry     beta= 0.20
     Davidson diagonalization with overlap
     ethr =  2.79E-09,  avg # of iterations =  1.0

     negative rho (up, down):  2.135E-04 0.000E+00

     total cpu time spent up to now is     1995.7 secs

     total energy              =  -12616.39524293 Ry
     estimated scf accuracy    <       0.00001153 Ry

     iteration # 53     ecut=    70.00 Ry     beta= 0.20
     Davidson diagonalization with overlap
     ethr =  1.44E-09,  avg # of iterations =  1.0

     negative rho (up, down):  2.134E-04 0.000E+00

     total cpu time spent up to now is     2030.9 secs

     total energy              =  -12616.39524240 Ry
     estimated scf accuracy    <       0.00001983 Ry

     iteration # 54     ecut=    70.00 Ry     beta= 0.20
     Davidson diagonalization with overlap
     ethr =  1.44E-09,  avg # of iterations =  1.0

     negative rho (up, down):  2.135E-04 0.000E+00

     total cpu time spent up to now is     2066.2 secs

     total energy              =  -12616.39524276 Ry
     estimated scf accuracy    <       0.00001639 Ry

     iteration # 55     ecut=    70.00 Ry     beta= 0.20
     Davidson diagonalization with overlap
     ethr =  1.44E-09,  avg # of iterations =  1.0

     negative rho (up, down):  2.135E-04 0.000E+00

     total cpu time spent up to now is     2101.4 secs

     total energy              =  -12616.39524319 Ry
     estimated scf accuracy    <       0.00001324 Ry

     iteration # 56     ecut=    70.00 Ry     beta= 0.20
     Davidson diagonalization with overlap
     ethr =  1.44E-09,  avg # of iterations =  1.0

     negative rho (up, down):  2.135E-04 0.000E+00

     total cpu time spent up to now is     2136.7 secs

     total energy              =  -12616.39524324 Ry
     estimated scf accuracy    <       0.00000347 Ry

     iteration # 57     ecut=    70.00 Ry     beta= 0.20
     Davidson diagonalization with overlap
     ethr =  4.34E-10,  avg # of iterations =  1.0

     negative rho (up, down):  2.135E-04 0.000E+00

     total cpu time spent up to now is     2171.9 secs

     total energy              =  -12616.39524320 Ry
     estimated scf accuracy    <       0.00000799 Ry

     iteration # 58     ecut=    70.00 Ry     beta= 0.20
     Davidson diagonalization with overlap
     ethr =  4.34E-10,  avg # of iterations =  1.0

     negative rho (up, down):  2.135E-04 0.000E+00

     total cpu time spent up to now is     2207.2 secs

     total energy              =  -12616.39524332 Ry
     estimated scf accuracy    <       0.00000344 Ry

     iteration # 59     ecut=    70.00 Ry     beta= 0.20
     Davidson diagonalization with overlap
     ethr =  4.30E-10,  avg # of iterations =  1.0

     negative rho (up, down):  2.136E-04 0.000E+00

     total cpu time spent up to now is     2242.4 secs

     total energy              =  -12616.39524331 Ry
     estimated scf accuracy    <       0.00001413 Ry

     iteration # 60     ecut=    70.00 Ry     beta= 0.20
     Davidson diagonalization with overlap
     ethr =  4.30E-10,  avg # of iterations =  1.0

     negative rho (up, down):  2.136E-04 0.000E+00

     total cpu time spent up to now is     2277.7 secs

     total energy              =  -12616.39524348 Ry
     estimated scf accuracy    <       0.00000165 Ry

     iteration # 61     ecut=    70.00 Ry     beta= 0.20
     Davidson diagonalization with overlap
     ethr =  2.07E-10,  avg # of iterations =  1.0

     negative rho (up, down):  2.136E-04 0.000E+00

     total cpu time spent up to now is     2312.9 secs

     total energy              =  -12616.39524344 Ry
     estimated scf accuracy    <       0.00000057 Ry

     iteration # 62     ecut=    70.00 Ry     beta= 0.20
     Davidson diagonalization with overlap
     ethr =  7.11E-11,  avg # of iterations =  2.6

     negative rho (up, down):  2.136E-04 0.000E+00

     total cpu time spent up to now is     2354.5 secs

     total energy              =  -12616.39524343 Ry
     estimated scf accuracy    <       0.00000428 Ry

     iteration # 63     ecut=    70.00 Ry     beta= 0.20
     Davidson diagonalization with overlap
     ethr =  7.11E-11,  avg # of iterations =  1.2

     negative rho (up, down):  2.137E-04 0.000E+00

     total cpu time spent up to now is     2391.8 secs

     total energy              =  -12616.39524354 Ry
     estimated scf accuracy    <       0.00000107 Ry

     iteration # 64     ecut=    70.00 Ry     beta= 0.20
     Davidson diagonalization with overlap
     ethr =  7.11E-11,  avg # of iterations =  1.1

     negative rho (up, down):  2.136E-04 0.000E+00

     total cpu time spent up to now is     2428.1 secs

     total energy              =  -12616.39524354 Ry
     estimated scf accuracy    <       0.00000071 Ry

     iteration # 65     ecut=    70.00 Ry     beta= 0.20
     Davidson diagonalization with overlap
     ethr =  7.11E-11,  avg # of iterations =  1.1

     negative rho (up, down):  2.136E-04 0.000E+00

     total cpu time spent up to now is     2464.5 secs

     total energy              =  -12616.39524354 Ry
     estimated scf accuracy    <       0.00000104 Ry

     iteration # 66     ecut=    70.00 Ry     beta= 0.20
     Davidson diagonalization with overlap
     ethr =  7.11E-11,  avg # of iterations =  1.0

     negative rho (up, down):  2.136E-04 0.000E+00

     total cpu time spent up to now is     2499.7 secs

     total energy              =  -12616.39524356 Ry
     estimated scf accuracy    <       0.00000020 Ry

     iteration # 67     ecut=    70.00 Ry     beta= 0.20
     Davidson diagonalization with overlap
     ethr =  2.53E-11,  avg # of iterations =  1.2

     negative rho (up, down):  2.136E-04 0.000E+00

     total cpu time spent up to now is     2537.2 secs

     total energy              =  -12616.39524355 Ry
     estimated scf accuracy    <       0.00000078 Ry

     iteration # 68     ecut=    70.00 Ry     beta= 0.20
     Davidson diagonalization with overlap
     ethr =  2.53E-11,  avg # of iterations =  1.5

     negative rho (up, down):  2.137E-04 0.000E+00

     total cpu time spent up to now is     2576.3 secs

     total energy              =  -12616.39524356 Ry
     estimated scf accuracy    <       0.00000047 Ry

     iteration # 69     ecut=    70.00 Ry     beta= 0.20
     Davidson diagonalization with overlap
     ethr =  2.53E-11,  avg # of iterations =  1.0

     negative rho (up, down):  2.136E-04 0.000E+00

     total cpu time spent up to now is     2611.4 secs

     total energy              =  -12616.39524357 Ry
     estimated scf accuracy    <       0.00000005 Ry

     iteration # 70     ecut=    70.00 Ry     beta= 0.20
     Davidson diagonalization with overlap
     ethr =  5.74E-12,  avg # of iterations =  1.2

     negative rho (up, down):  2.136E-04 0.000E+00

     total cpu time spent up to now is     2648.8 secs

     total energy              =  -12616.39524357 Ry
     estimated scf accuracy    <       0.00000007 Ry

     iteration # 71     ecut=    70.00 Ry     beta= 0.20
     Davidson diagonalization with overlap
     ethr =  5.74E-12,  avg # of iterations =  1.1

     negative rho (up, down):  2.137E-04 0.000E+00

     total cpu time spent up to now is     2685.3 secs

     total energy              =  -12616.39524357 Ry
     estimated scf accuracy    <       0.00000009 Ry

     iteration # 72     ecut=    70.00 Ry     beta= 0.20
     Davidson diagonalization with overlap
     ethr =  5.74E-12,  avg # of iterations =  1.0

     negative rho (up, down):  2.137E-04 0.000E+00

     total cpu time spent up to now is     2720.4 secs

     total energy              =  -12616.39524357 Ry
     estimated scf accuracy    <       0.00000002 Ry

     iteration # 73     ecut=    70.00 Ry     beta= 0.20
     Davidson diagonalization with overlap
     ethr =  2.34E-12,  avg # of iterations =  1.1

     negative rho (up, down):  2.136E-04 0.000E+00

     total cpu time spent up to now is     2756.9 secs

     End of self-consistent calculation

          k = 0.0000 0.0000 0.0000 (108303 PWs)   bands (ev):

   -67.0351 -66.9955 -66.9945 -66.9940 -66.9868 -66.9862 -66.9853 -66.9833
   -66.9609 -66.9607 -66.9603 -66.9576 -66.9560 -66.9538 -66.9521 -66.9515
   -66.9503 -66.9499 -66.9490 -66.9392 -66.9370 -66.9364 -66.9332 -66.9301
   -66.7832 -66.7542 -66.7537 -66.7535 -66.7470 -66.7468 -66.7467 -66.7304
   -66.7300 -66.7298 -66.7238 -66.7235 -66.6904 -66.6687 -66.6583 -66.6569
   -66.6439 -66.6336 -66.6244 -66.6203 -66.6166 -66.6143 -66.6106 -66.6082
   -38.8392 -38.8128 -38.8109 -38.8099 -38.7103 -38.7094 -38.7085 -38.6708
   -38.6697 -38.6549 -38.6536 -38.6535 -38.6298 -38.5993 -38.5979 -38.5961
   -38.5767 -38.5758 -38.5747 -38.5493 -38.5459 -38.5446 -38.5123 -38.5113
   -38.5070 -38.5069 -38.5056 -38.4986 -38.4243 -38.4149 -38.4069 -38.4067
   -38.4056 -38.4022 -38.4016 -38.4006 -38.3992 -38.3990 -38.3623 -38.3620
   -38.3617 -38.3457 -38.3448 -38.3444 -38.3220 -38.3012 -38.3005 -38.2997
   -38.2982 -38.2976 -38.2975 -38.2970 -38.2966 -38.2800 -38.2792 -38.2791
   -38.2737 -38.2727 -38.2677 -38.2659 -38.2658 -38.2656 -38.2646 -38.2615
   -38.2513 -38.2502 -38.2490 -38.2450 -38.2385 -38.2371 -38.2361 -38.1911
   -38.1860 -38.1841 -38.1835 -38.1790 -38.1780 -38.1772 -38.1737 -38.1727
   -38.1568 -38.1504 -38.1497 -38.1472 -38.1313 -38.1310 -38.1300 -38.1155
   -38.1147 -38.1133 -38.1030 -38.0907 -38.0905 -38.0870 -38.0861 -38.0846
   -38.0752 -38.0731 -38.0674 -38.0660 -38.0655 -38.0393 -38.0391 -38.0386
   -38.0053 -38.0044 -37.9975 -37.9973 -37.9970 -37.9855 -37.9845 -37.9813
   -37.9803 -37.9791 -37.9782 -37.9631 -37.9621 -37.9577 -37.9558 -37.9459
   -37.9449 -37.9355 -37.9350 -37.9342 -37.9017 -37.9014 -37.9011 -37.9001
   -37.9000 -37.8998 -37.8716 -37.8712 -37.8686 -37.8526 -37.8445 -37.8435
   -37.7445 -37.7356 -37.7307 -37.7140 -37.7092 -37.7083 -37.6910 -37.6901
   -12.5365 -12.0674 -11.8338 -11.8332 -11.8322 -11.6899 -11.6854 -11.6822
   -11.6629 -11.6610 -11.6589 -11.3809 -11.3783 -11.3753 -11.3018 -11.2705
   -11.2685 -11.2665 -11.0387 -11.0164  -8.7462  -8.7457  -8.7455  -8.6882
    -8.4289  -3.0388  -3.0369  -3.0360  -2.8255  -2.7952  -2.7945  -2.6008
    -2.6003  -2.5996  -2.5822  -2.5736  -2.5728  -2.5082  -2.4481  -2.4419
    -2.4395  -2.3574  -2.3548  -2.3532  -2.2732  -2.2722  -1.8027  -1.7988
    -1.7946  -1.6266  -1.6192  -1.6156  -1.5631  -1.5386  -1.5225  -1.4661
    -1.4607  -1.4606  -1.4050  -1.3815  -1.3738  -1.3729  -1.3213  -1.3192
    -1.2709  -1.2661  -1.2617  -1.1416  -1.1249  -1.0997  -1.0587  -1.0139
    -0.9536  -0.9421  -0.9380  -0.9349  -0.9200  -0.8820  -0.8610  -0.8575
    -0.8452  -0.7207  -0.7151  -0.7031  -0.5064  -0.4705  -0.4678  -0.4650
     0.6252   1.1902   1.1905   1.1908   1.4331   1.4332   1.4334   1.5112
     1.5268   1.5268   1.5488   1.5491   1.5498   1.5701   1.5702   1.5706
     1.7433   1.7446   1.7455   2.0318   2.0326   2.0342   2.1585   2.1600
     2.1606   2.1911   2.3105   2.3150   2.3161   2.4043   2.4058   2.4086
     2.4185   2.4195   2.4225   2.4809   2.4824   2.4827   2.5001   2.6623
     2.6626   2.7639   2.7658   2.7675   3.1212   3.1225   3.1607   3.2523
     3.2524   3.3154   3.3168   3.3182   3.3304   3.3331   3.3369   3.4524
     3.4563   3.4622   3.4970   3.5198   3.5264   3.6098   3.6324   3.6393
     3.6411   3.6608   3.6613   3.6897   3.6939   3.6961   3.6963   3.7910
     3.7943   3.7989   3.9530   3.9558   4.0028   4.1033   4.1094   4.1103
     4.1259   4.1269   4.2562   4.2633   4.2730   4.2940   4.3260   4.3323
     4.3504   4.3840   4.3847   4.3870   4.3997   4.4607   4.4609   4.4679
     4.5160   4.5165   4.6222   4.6635   4.6714   4.6819   4.7082   4.7529
     4.7546   4.7768   4.8046   4.8072   4.8539   4.8606   4.8614   4.9198
     4.9246   4.9338   4.9821   4.9841   5.0016   5.0984   5.1026   5.1309
     5.2022   5.2154   5.2744   5.3597   5.3603   5.3617   5.4701   5.4723
     5.5155   5.5202   5.5336   5.5356   5.5361   5.5593   5.6635   5.6654
     5.6679   5.6749   5.6773   5.6875   5.6959   5.6979   5.7299   5.7359
     5.7802   5.8105   5.8311   5.8331   5.8340   5.8376   5.8386   5.8619
     5.8801   5.8885   5.9585   5.9629   5.9639   5.9793   5.9808   5.9824
     5.9830   6.0021   6.0357   6.0369   6.0372   6.0831   6.0938   6.1222
     6.1725   6.1752   6.1854   6.1864   6.1890   6.2315   6.2323   6.2378
     6.2402   6.2600   6.2843   6.2882   6.2912   6.3276   6.3333   6.3854
     6.4996   6.5397   6.5402   6.5418   6.5989   6.6005   6.6155   6.6399
     6.6423   6.6815   6.6865   6.6875   6.6938   6.6972   6.7297   6.8021

          k = 0.0000 0.2887 0.0000 (108355 PWs)   bands (ev):

   -67.0316 -67.0076 -66.9986 -66.9976 -66.9813 -66.9806 -66.9795 -66.9735
   -66.9650 -66.9633 -66.9627 -66.9595 -66.9589 -66.9563 -66.9526 -66.9520
   -66.9490 -66.9468 -66.9436 -66.9400 -66.9379 -66.9359 -66.9338 -66.9309
   -66.7806 -66.7628 -66.7565 -66.7558 -66.7430 -66.7426 -66.7387 -66.7321
   -66.7314 -66.7292 -66.7253 -66.7246 -66.6893 -66.6691 -66.6609 -66.6576
   -66.6431 -66.6317 -66.6227 -66.6199 -66.6165 -66.6151 -66.6109 -66.6096
   -38.8360 -38.8162 -38.8073 -38.8069 -38.7059 -38.7039 -38.7032 -38.6787
   -38.6683 -38.6614 -38.6604 -38.6578 -38.6313 -38.6158 -38.6026 -38.5999
   -38.5711 -38.5705 -38.5605 -38.5508 -38.5480 -38.5453 -38.5398 -38.5170
   -38.5012 -38.5005 -38.4986 -38.4776 -38.4173 -38.4163 -38.4120 -38.4081
   -38.4045 -38.3985 -38.3978 -38.3962 -38.3905 -38.3837 -38.3673 -38.3630
   -38.3628 -38.3538 -38.3480 -38.3469 -38.3230 -38.3165 -38.3035 -38.3023
   -38.3020 -38.3006 -38.3005 -38.3003 -38.2944 -38.2883 -38.2860 -38.2836
   -38.2811 -38.2805 -38.2728 -38.2686 -38.2682 -38.2615 -38.2533 -38.2505
   -38.2458 -38.2444 -38.2426 -38.2328 -38.2292 -38.2273 -38.2265 -38.1955
   -38.1918 -38.1907 -38.1890 -38.1886 -38.1811 -38.1769 -38.1762 -38.1641
   -38.1596 -38.1562 -38.1549 -38.1407 -38.1343 -38.1331 -38.1199 -38.1191
   -38.1137 -38.1080 -38.1053 -38.0944 -38.0912 -38.0857 -38.0847 -38.0762
   -38.0751 -38.0669 -38.0634 -38.0622 -38.0605 -38.0450 -38.0439 -38.0413
   -38.0096 -38.0053 -38.0034 -37.9951 -37.9948 -37.9921 -37.9824 -37.9802
   -37.9780 -37.9753 -37.9747 -37.9610 -37.9599 -37.9562 -37.9545 -37.9481
   -37.9460 -37.9379 -37.9368 -37.9335 -37.9076 -37.9039 -37.9030 -37.8956
   -37.8944 -37.8916 -37.8817 -37.8738 -37.8666 -37.8521 -37.8454 -37.8444
   -37.7432 -37.7326 -37.7279 -37.7116 -37.7096 -37.7077 -37.6989 -37.6921
   -12.4729 -12.0458 -12.0250 -11.8896 -11.8878 -11.7581 -11.6738 -11.6676
   -11.5972 -11.5934 -11.5156 -11.3725 -11.3666 -11.3209 -11.3030 -11.2991
   -11.2905 -11.2368 -11.0718 -11.0513  -8.7477  -8.7471  -8.7360  -8.6953
    -8.4289  -3.0068  -3.0043  -2.9638  -2.8523  -2.7816  -2.7692  -2.7453
    -2.7413  -2.7398  -2.6241  -2.6220  -2.4735  -2.4327  -2.3903  -2.3837
    -2.3817  -2.3247  -2.2728  -2.2433  -2.2391  -2.1952  -1.9992  -1.8097
    -1.8027  -1.7670  -1.6833  -1.6669  -1.6104  -1.5245  -1.5184  -1.4891
    -1.4570  -1.4390  -1.4310  -1.4103  -1.3676  -1.3587  -1.3470  -1.2945
    -1.2879  -1.2785  -1.1630  -1.1305  -1.1091  -1.0978  -1.0670  -1.0399
    -0.9799  -0.9326  -0.9232  -0.9134  -0.8723  -0.8680  -0.8520  -0.8289
    -0.8110  -0.7532  -0.6879  -0.6818  -0.5420  -0.5102  -0.4954  -0.4869
     0.7460   1.1522   1.1833   1.1841   1.4227   1.4231   1.4339   1.4351
     1.5012   1.5186   1.5190   1.5376   1.6001   1.6387   1.6411   1.6526
     1.7547   1.7575   1.8012   2.0397   2.0411   2.0843   2.1341   2.1373
     2.1903   2.2432   2.2750   2.2783   2.3014   2.4000   2.4013   2.4183
     2.4295   2.4309   2.4940   2.5223   2.5248   2.5429   2.5652   2.5950
     2.6969   2.7762   2.7777   2.8380   2.9912   3.0437   3.1055   3.1758
     3.1796   3.2078   3.2131   3.2392   3.3381   3.3420   3.3684   3.3727
     3.3757   3.4157   3.4915   3.5661   3.5758   3.5838   3.6155   3.6563
     3.6765   3.6827   3.6975   3.7054   3.7507   3.7579   3.7597   3.8424
     3.9623   3.9850   3.9883   4.0033   4.0094   4.0211   4.0339   4.1205
     4.1493   4.1556   4.2162   4.2210   4.2508   4.2717   4.2829   4.2864
     4.3217   4.3365   4.3545   4.3597   4.3801   4.4565   4.4614   4.4699
     4.4735   4.5425   4.5487   4.6534   4.6677   4.6944   4.7123   4.7429
     4.7534   4.7591   4.8108   4.8275   4.8512   4.9042   4.9155   4.9164
     4.9469   4.9523   4.9783   5.0418   5.0583   5.1141   5.1321   5.1580
     5.1771   5.2117   5.2407   5.2791   5.2990   5.3344   5.3508   5.4265
     5.4425   5.4449   5.4467   5.4951   5.5232   5.5338   5.5470   5.5507
     5.5736   5.6641   5.6773   5.6891   5.7198   5.7268   5.7323   5.7373
     5.7616   5.7850   5.7928   5.8097   5.8314   5.8598   5.8632   5.8667
     5.8782   5.9157   5.9334   5.9437   5.9512   5.9548   5.9920   5.9970
     6.0059   6.0176   6.0225   6.0303   6.0361   6.0430   6.0801   6.1507
     6.1820   6.1864   6.2031   6.2246   6.2271   6.2306   6.2401   6.2780
     6.2885   6.2917   6.3124   6.3446   6.3751   6.3803   6.4179   6.4331
     6.4418   6.4440   6.5113   6.5162   6.5303   6.5392   6.6221   6.6297
     6.6503   6.6681   6.6752   6.7016   6.7145   6.7204   6.7767   6.7859

          k = 0.0000-0.5774 0.0000 (108310 PWs)   bands (ev):

   -67.0221 -67.0216 -67.0007 -66.9996 -66.9751 -66.9738 -66.9732 -66.9722
   -66.9686 -66.9680 -66.9613 -66.9606 -66.9602 -66.9581 -66.9558 -66.9557
   -66.9456 -66.9422 -66.9419 -66.9415 -66.9385 -66.9352 -66.9346 -66.9324
   -66.7735 -66.7730 -66.7579 -66.7572 -66.7378 -66.7376 -66.7359 -66.7349
   -66.7307 -66.7299 -66.7272 -66.7268 -66.6881 -66.6694 -66.6634 -66.6582
   -66.6424 -66.6298 -66.6213 -66.6193 -66.6162 -66.6145 -66.6125 -66.6111
   -38.8274 -38.8260 -38.8031 -38.8025 -38.6979 -38.6971 -38.6950 -38.6926
   -38.6684 -38.6680 -38.6641 -38.6638 -38.6299 -38.6296 -38.6049 -38.6022
   -38.5672 -38.5659 -38.5584 -38.5571 -38.5530 -38.5510 -38.5312 -38.5308
   -38.4941 -38.4929 -38.4816 -38.4810 -38.4267 -38.4255 -38.4040 -38.4036
   -38.3981 -38.3976 -38.3877 -38.3874 -38.3769 -38.3760 -38.3653 -38.3647
   -38.3595 -38.3593 -38.3514 -38.3495 -38.3373 -38.3370 -38.3061 -38.3051
   -38.3048 -38.3041 -38.2997 -38.2995 -38.2977 -38.2962 -38.2899 -38.2863
   -38.2808 -38.2801 -38.2792 -38.2714 -38.2710 -38.2701 -38.2482 -38.2468
   -38.2327 -38.2275 -38.2267 -38.2210 -38.2206 -38.2177 -38.2173 -38.2151
   -38.2027 -38.2002 -38.1989 -38.1985 -38.1732 -38.1704 -38.1686 -38.1680
   -38.1648 -38.1646 -38.1511 -38.1492 -38.1362 -38.1340 -38.1171 -38.1140
   -38.1114 -38.1101 -38.0984 -38.0943 -38.0926 -38.0869 -38.0822 -38.0791
   -38.0737 -38.0721 -38.0600 -38.0566 -38.0534 -38.0498 -38.0311 -38.0302
   -38.0201 -38.0178 -38.0049 -38.0042 -37.9934 -37.9928 -37.9811 -37.9760
   -37.9749 -37.9724 -37.9692 -37.9683 -37.9566 -37.9530 -37.9522 -37.9486
   -37.9406 -37.9402 -37.9394 -37.9385 -37.9053 -37.9045 -37.9017 -37.9008
   -37.8916 -37.8902 -37.8816 -37.8808 -37.8647 -37.8497 -37.8482 -37.8454
   -37.7418 -37.7256 -37.7204 -37.7178 -37.7094 -37.7091 -37.7052 -37.6943
   -12.2970 -12.2949 -11.9248 -11.9223 -11.9114 -11.9083 -11.6813 -11.6754
   -11.5090 -11.5060 -11.3826 -11.3823 -11.3734 -11.3654 -11.3466 -11.3441
   -11.1648 -11.1612 -11.1440 -11.1439  -8.7493  -8.7487  -8.7146  -8.7140
    -8.4289  -2.9713  -2.9682  -2.8781  -2.8762  -2.8105  -2.8094  -2.8084
    -2.8057  -2.6837  -2.6827  -2.5681  -2.5657  -2.4055  -2.4000  -2.3425
    -2.3337  -2.2917  -2.2807  -2.1598  -2.1557  -2.0731  -2.0719  -1.8829
    -1.8789  -1.7582  -1.7364  -1.7012  -1.6938  -1.6078  -1.6024  -1.4902
    -1.4857  -1.4794  -1.4744  -1.3636  -1.3553  -1.3055  -1.2989  -1.2919
    -1.2808  -1.1876  -1.1672  -1.1229  -1.0949  -1.0856  -1.0723  -1.0662
    -1.0197  -0.9396  -0.9326  -0.8892  -0.8727  -0.8673  -0.8321  -0.7703
    -0.7670  -0.7061  -0.7017  -0.6575  -0.6553  -0.5253  -0.5197  -0.4971
     0.9871   0.9889   1.1713   1.1721   1.4024   1.4040   1.4232   1.4238
     1.4986   1.4990   1.5153   1.5155   1.6576   1.6584   1.6665   1.6740
     1.8934   1.8966   1.9002   1.9022   2.0755   2.0764   2.1106   2.1147
     2.2041   2.2052   2.3366   2.3379   2.3590   2.3608   2.3927   2.3930
     2.4307   2.4334   2.4450   2.4458   2.5501   2.5537   2.7218   2.7255
     2.7770   2.7807   2.7975   2.8010   2.9885   2.9965   3.0138   3.0182
     3.0843   3.0851   3.1781   3.1866   3.3029   3.3049   3.3651   3.3688
     3.3975   3.4005   3.4945   3.4966   3.5941   3.6001   3.6457   3.6475
     3.7122   3.7142   3.7838   3.7931   3.8421   3.8450   3.8804   3.8852
     3.9162   3.9214   3.9471   3.9584   3.9814   3.9831   4.1031   4.1126
     4.1290   4.1332   4.2384   4.2593   4.2758   4.2935   4.3086   4.3219
     4.3327   4.3364   4.3474   4.3571   4.4159   4.4338   4.4426   4.4469
     4.4537   4.4650   4.5831   4.5858   4.5973   4.6246   4.6545   4.6555
     4.6730   4.6749   4.7900   4.8004   4.9640   4.9645   4.9665   4.9704
     4.9709   4.9893   5.0422   5.0530   5.0932   5.0957   5.1121   5.1132
     5.1625   5.1652   5.2393   5.2823   5.3192   5.3204   5.3310   5.3343
     5.4091   5.4149   5.4390   5.4531   5.4983   5.5016   5.5383   5.5440
     5.5633   5.5679   5.5741   5.6520   5.6811   5.6859   5.7188   5.7211
     5.7402   5.7429   5.7624   5.8027   5.8158   5.8217   5.8453   5.8540
     5.8723   5.8749   5.8908   5.8998   5.9607   5.9617   5.9789   5.9818
     6.0157   6.0299   6.0504   6.0879   6.1333   6.1396   6.1427   6.1526
     6.1546   6.1671   6.1723   6.1735   6.1857   6.1906   6.3157   6.3208
     6.3225   6.3254   6.3667   6.3947   6.4063   6.4190   6.4223   6.4246
     6.4389   6.4646   6.4731   6.4734   6.5897   6.5907   6.5966   6.5980
     6.6342   6.6429   6.6855   6.6915   6.8275   6.8330   6.8352   6.8430

          k = 0.2500 0.4330 0.0000 (108308 PWs)   bands (ev):

   -67.0250 -67.0134 -67.0125 -66.9891 -66.9815 -66.9764 -66.9716 -66.9690
   -66.9675 -66.9667 -66.9659 -66.9605 -66.9603 -66.9567 -66.9561 -66.9519
   -66.9489 -66.9436 -66.9409 -66.9402 -66.9379 -66.9362 -66.9349 -66.9318
   -66.7756 -66.7668 -66.7666 -66.7501 -66.7434 -66.7373 -66.7341 -66.7338
   -66.7300 -66.7299 -66.7280 -66.7269 -66.6880 -66.6691 -66.6650 -66.6570
   -66.6419 -66.6305 -66.6216 -66.6189 -66.6162 -66.6144 -66.6125 -66.6111
   -38.8293 -38.8182 -38.8163 -38.7951 -38.6997 -38.6986 -38.6930 -38.6890
   -38.6746 -38.6662 -38.6634 -38.6623 -38.6309 -38.6224 -38.6213 -38.5825
   -38.5761 -38.5644 -38.5637 -38.5584 -38.5570 -38.5404 -38.5383 -38.5250
   -38.4899 -38.4894 -38.4881 -38.4773 -38.4526 -38.4062 -38.4059 -38.4056
   -38.3978 -38.3930 -38.3843 -38.3815 -38.3812 -38.3748 -38.3740 -38.3653
   -38.3593 -38.3524 -38.3521 -38.3505 -38.3339 -38.3282 -38.3272 -38.3068
   -38.3065 -38.3021 -38.3007 -38.2975 -38.2926 -38.2900 -38.2875 -38.2873
   -38.2841 -38.2799 -38.2790 -38.2717 -38.2692 -38.2678 -38.2670 -38.2333
   -38.2322 -38.2306 -38.2271 -38.2221 -38.2197 -38.2181 -38.2165 -38.2073
   -38.2051 -38.2022 -38.2012 -38.1991 -38.1752 -38.1698 -38.1690 -38.1613
   -38.1605 -38.1583 -38.1577 -38.1538 -38.1479 -38.1248 -38.1188 -38.1165
   -38.1122 -38.1081 -38.0970 -38.0958 -38.0941 -38.0880 -38.0854 -38.0810
   -38.0735 -38.0619 -38.0607 -38.0572 -38.0519 -38.0407 -38.0393 -38.0353
   -38.0197 -38.0085 -38.0069 -38.0037 -37.9948 -37.9924 -37.9854 -37.9792
   -37.9762 -37.9715 -37.9697 -37.9668 -37.9559 -37.9525 -37.9510 -37.9472
   -37.9449 -37.9428 -37.9348 -37.9346 -37.9096 -37.9093 -37.8978 -37.8971
   -37.8955 -37.8861 -37.8857 -37.8781 -37.8649 -37.8503 -37.8470 -37.8459
   -37.7391 -37.7282 -37.7227 -37.7185 -37.7122 -37.7055 -37.7028 -37.6947
   -12.3527 -12.1401 -12.1384 -11.9464 -11.8130 -11.8100 -11.7613 -11.5953
   -11.5694 -11.4592 -11.4396 -11.4384 -11.4237 -11.3583 -11.2486 -11.2448
   -11.2243 -11.2237 -11.1352 -11.1161  -8.7577  -8.7304  -8.7300  -8.7086
    -8.4289  -3.0207  -2.9222  -2.9206  -2.9047  -2.7929  -2.7916  -2.7518
    -2.7154  -2.6638  -2.6506  -2.6281  -2.6263  -2.5821  -2.3947  -2.2578
    -2.2561  -2.2436  -2.2229  -2.1692  -2.1654  -2.1257  -2.1198  -1.9971
    -1.8281  -1.8148  -1.7360  -1.7067  -1.6181  -1.5662  -1.5611  -1.4861
    -1.4607  -1.4472  -1.4311  -1.4169  -1.4050  -1.4013  -1.3475  -1.2360
    -1.2261  -1.1835  -1.1782  -1.1587  -1.1193  -1.1104  -1.0487  -0.9944
    -0.9648  -0.9543  -0.9123  -0.9008  -0.8832  -0.8670  -0.8443  -0.8220
    -0.7858  -0.7767  -0.6957  -0.5976  -0.5894  -0.5862  -0.5031  -0.4899
     0.9218   1.1036   1.1049   1.2042   1.3894   1.4054   1.4068   1.4075
     1.4509   1.5323   1.5330   1.5595   1.6265   1.6447   1.6478   1.7035
     1.8217   1.9400   1.9419   2.0293   2.0298   2.0931   2.0944   2.1527
     2.1591   2.2206   2.2226   2.2538   2.3286   2.3340   2.3685   2.3692
     2.4200   2.4699   2.5351   2.5614   2.5640   2.6467   2.6476   2.7605
     2.7662   2.7689   2.7996   2.8074   2.9019   2.9069   2.9098   2.9745
     3.1557   3.2185   3.2623   3.2682   3.3097   3.3126   3.3192   3.4042
     3.4088   3.4107   3.4265   3.5342   3.5537   3.5558   3.6241   3.6801
     3.6937   3.7206   3.7295   3.7600   3.7639   3.8197   3.8437   3.8629
     3.9850   4.0073   4.0246   4.0329   4.0425   4.0505   4.0566   4.0904
     4.1243   4.1538   4.1809   4.2091   4.2164   4.2699   4.2822   4.3035
     4.3350   4.3383   4.3628   4.3779   4.4155   4.4175   4.4352   4.4487
     4.5351   4.5392   4.5602   4.5735   4.5782   4.5830   4.6118   4.6502
     4.7040   4.8351   4.8376   4.8550   4.8586   4.8696   4.8821   4.8926
     4.9290   4.9495   5.0132   5.0311   5.0945   5.1168   5.1368   5.1451
     5.1525   5.2500   5.2708   5.2868   5.2965   5.3214   5.3642   5.4011
     5.4099   5.4119   5.4277   5.4585   5.4786   5.4909   5.5154   5.5626
     5.5765   5.5995   5.6146   5.6879   5.7049   5.7082   5.7101   5.7211
     5.7468   5.7512   5.7548   5.7622   5.7855   5.8381   5.8418   5.8499
     5.8576   5.8684   5.8892   5.9014   5.9292   5.9440   5.9640   6.0010
     6.0094   6.0278   6.0440   6.0510   6.0689   6.0838   6.0867   6.1498
     6.1562   6.1665   6.1883   6.1993   6.2143   6.2482   6.2675   6.2842
     6.3149   6.3322   6.3482   6.3618   6.4051   6.4376   6.4510   6.4756
     6.4786   6.4999   6.5416   6.5444   6.5717   6.5975   6.6278   6.6471
     6.6513   6.6642   6.6961   6.7012   6.7280   6.7737   6.8253   6.8343

          k =-0.2500 0.1443 0.0000 (108355 PWs)   bands (ev):

   -67.0316 -67.0075 -66.9987 -66.9978 -66.9812 -66.9801 -66.9795 -66.9739
   -66.9646 -66.9635 -66.9630 -66.9595 -66.9587 -66.9571 -66.9530 -66.9516
   -66.9480 -66.9470 -66.9439 -66.9396 -66.9374 -66.9371 -66.9339 -66.9306
   -66.7806 -66.7628 -66.7561 -66.7560 -66.7430 -66.7428 -66.7386 -66.7318
   -66.7317 -66.7292 -66.7252 -66.7247 -66.6892 -66.6694 -66.6603 -66.6582
   -66.6422 -66.6324 -66.6221 -66.6204 -66.6166 -66.6146 -66.6120 -66.6088
   -38.8359 -38.8160 -38.8082 -38.8061 -38.7051 -38.7045 -38.7034 -38.6778
   -38.6692 -38.6613 -38.6602 -38.6584 -38.6314 -38.6164 -38.6017 -38.5993
   -38.5721 -38.5698 -38.5606 -38.5510 -38.5472 -38.5460 -38.5394 -38.5177
   -38.5010 -38.5001 -38.4989 -38.4775 -38.4179 -38.4169 -38.4117 -38.4082
   -38.4043 -38.3983 -38.3980 -38.3957 -38.3909 -38.3834 -38.3672 -38.3632
   -38.3626 -38.3531 -38.3480 -38.3472 -38.3228 -38.3169 -38.3035 -38.3022
   -38.3021 -38.3014 -38.3004 -38.2997 -38.2946 -38.2882 -38.2871 -38.2843
   -38.2813 -38.2801 -38.2720 -38.2687 -38.2678 -38.2610 -38.2528 -38.2505
   -38.2458 -38.2448 -38.2436 -38.2320 -38.2285 -38.2274 -38.2266 -38.1959
   -38.1944 -38.1904 -38.1889 -38.1869 -38.1809 -38.1768 -38.1761 -38.1641
   -38.1593 -38.1559 -38.1555 -38.1399 -38.1333 -38.1327 -38.1230 -38.1196
   -38.1144 -38.1074 -38.1036 -38.0953 -38.0899 -38.0869 -38.0839 -38.0770
   -38.0749 -38.0659 -38.0638 -38.0618 -38.0604 -38.0456 -38.0443 -38.0409
   -38.0097 -38.0054 -38.0028 -37.9956 -37.9949 -37.9919 -37.9812 -37.9803
   -37.9778 -37.9772 -37.9761 -37.9607 -37.9588 -37.9563 -37.9540 -37.9480
   -37.9461 -37.9377 -37.9373 -37.9333 -37.9075 -37.9040 -37.9034 -37.8948
   -37.8945 -37.8919 -37.8814 -37.8741 -37.8666 -37.8521 -37.8454 -37.8444
   -37.7422 -37.7332 -37.7283 -37.7146 -37.7082 -37.7062 -37.6982 -37.6927
   -12.4729 -12.0457 -12.0250 -11.8891 -11.8883 -11.7583 -11.6709 -11.6702
   -11.5954 -11.5952 -11.5156 -11.3700 -11.3693 -11.3208 -11.3017 -11.3011
   -11.2900 -11.2366 -11.0717 -11.0513  -8.7476  -8.7472  -8.7360  -8.6953
    -8.4289  -3.0065  -3.0043  -2.9645  -2.8523  -2.7817  -2.7688  -2.7436
    -2.7414  -2.7397  -2.6242  -2.6222  -2.4751  -2.4341  -2.3918  -2.3832
    -2.3825  -2.3242  -2.2714  -2.2418  -2.2394  -2.1939  -1.9981  -1.8108
    -1.8034  -1.7677  -1.6766  -1.6705  -1.6148  -1.5236  -1.5184  -1.4855
    -1.4577  -1.4396  -1.4314  -1.4083  -1.3646  -1.3590  -1.3506  -1.2959
    -1.2896  -1.2776  -1.1655  -1.1421  -1.1150  -1.0775  -1.0667  -1.0348
    -0.9843  -0.9392  -0.9220  -0.9116  -0.8712  -0.8635  -0.8580  -0.8304
    -0.8090  -0.7505  -0.6881  -0.6838  -0.5391  -0.5108  -0.4957  -0.4872
     0.7460   1.1522   1.1836   1.1838   1.4227   1.4230   1.4338   1.4351
     1.5015   1.5186   1.5192   1.5376   1.6002   1.6391   1.6409   1.6529
     1.7560   1.7571   1.8001   2.0398   2.0416   2.0841   2.1347   2.1365
     2.1902   2.2421   2.2764   2.2778   2.3017   2.3998   2.4023   2.4180
     2.4287   2.4303   2.4930   2.5228   2.5250   2.5421   2.5651   2.5941
     2.6971   2.7757   2.7768   2.8402   2.9921   3.0431   3.1076   3.1759
     3.1778   3.2074   3.2134   3.2437   3.3373   3.3399   3.3675   3.3730
     3.3756   3.4161   3.4933   3.5601   3.5745   3.5846   3.6170   3.6661
     3.6752   3.6860   3.6920   3.7076   3.7528   3.7552   3.7579   3.8428
     3.9653   3.9813   3.9947   3.9989   4.0135   4.0193   4.0329   4.1134
     4.1456   4.1530   4.2152   4.2226   4.2550   4.2708   4.2788   4.2878
     4.3097   4.3374   4.3556   4.3638   4.3790   4.4548   4.4634   4.4720
     4.4792   4.5388   4.5486   4.6526   4.6703   4.6934   4.7203   4.7439
     4.7506   4.7580   4.8095   4.8215   4.8550   4.9019   4.9149   4.9198
     4.9500   4.9580   4.9786   5.0378   5.0724   5.1115   5.1233   5.1623
     5.1718   5.2060   5.2547   5.2749   5.3063   5.3325   5.3422   5.4290
     5.4445   5.4458   5.4482   5.4938   5.5242   5.5298   5.5443   5.5503
     5.5664   5.6495   5.6733   5.6995   5.7267   5.7299   5.7334   5.7358
     5.7637   5.7857   5.7965   5.8046   5.8131   5.8613   5.8658   5.8689
     5.8765   5.9211   5.9357   5.9417   5.9480   5.9704   5.9901   5.9961
     6.0037   6.0160   6.0230   6.0310   6.0373   6.0476   6.0710   6.1573
     6.1810   6.1850   6.2035   6.2251   6.2279   6.2332   6.2468   6.2865
     6.2908   6.2920   6.3173   6.3469   6.3705   6.3798   6.3900   6.4310
     6.4416   6.4581   6.5121   6.5187   6.5281   6.5351   6.6236   6.6330
     6.6496   6.6669   6.6764   6.6949   6.7144   6.7386   6.7763   6.7865

          k = 0.2500 0.1443 0.0000 (108355 PWs)   bands (ev):

   -67.0316 -67.0076 -66.9986 -66.9978 -66.9812 -66.9802 -66.9796 -66.9738
   -66.9646 -66.9634 -66.9629 -66.9594 -66.9589 -66.9570 -66.9529 -66.9517
   -66.9479 -66.9471 -66.9438 -66.9397 -66.9377 -66.9367 -66.9339 -66.9306
   -66.7806 -66.7628 -66.7561 -66.7560 -66.7430 -66.7428 -66.7386 -66.7318
   -66.7317 -66.7292 -66.7252 -66.7247 -66.6892 -66.6696 -66.6602 -66.6581
   -66.6423 -66.6323 -66.6231 -66.6197 -66.6164 -66.6144 -66.6119 -66.6091
   -38.8360 -38.8161 -38.8081 -38.8062 -38.7050 -38.7047 -38.7033 -38.6778
   -38.6691 -38.6613 -38.6602 -38.6583 -38.6314 -38.6163 -38.6016 -38.5996
   -38.5720 -38.5699 -38.5605 -38.5510 -38.5474 -38.5458 -38.5394 -38.5177
   -38.5010 -38.5004 -38.4988 -38.4775 -38.4178 -38.4166 -38.4117 -38.4081
   -38.4043 -38.3983 -38.3980 -38.3959 -38.3908 -38.3835 -38.3673 -38.3631
   -38.3627 -38.3534 -38.3480 -38.3470 -38.3229 -38.3168 -38.3036 -38.3022
   -38.3020 -38.3012 -38.3004 -38.2999 -38.2945 -38.2883 -38.2869 -38.2841
   -38.2812 -38.2801 -38.2723 -38.2687 -38.2680 -38.2610 -38.2528 -38.2506
   -38.2458 -38.2445 -38.2435 -38.2323 -38.2286 -38.2274 -38.2267 -38.1949
   -38.1944 -38.1905 -38.1888 -38.1872 -38.1813 -38.1767 -38.1760 -38.1641
   -38.1595 -38.1558 -38.1553 -38.1402 -38.1334 -38.1331 -38.1222 -38.1196
   -38.1143 -38.1077 -38.1039 -38.0948 -38.0903 -38.0869 -38.0838 -38.0767
   -38.0750 -38.0658 -38.0642 -38.0617 -38.0603 -38.0456 -38.0440 -38.0410
   -38.0097 -38.0053 -38.0031 -37.9954 -37.9949 -37.9920 -37.9817 -37.9799
   -37.9779 -37.9768 -37.9757 -37.9608 -37.9589 -37.9562 -37.9544 -37.9481
   -37.9460 -37.9376 -37.9373 -37.9333 -37.9075 -37.9039 -37.9035 -37.8948
   -37.8946 -37.8919 -37.8814 -37.8741 -37.8666 -37.8521 -37.8454 -37.8444
   -37.7417 -37.7333 -37.7284 -37.7153 -37.7092 -37.7049 -37.6988 -37.6920
   -12.4729 -12.0458 -12.0250 -11.8892 -11.8882 -11.7583 -11.6708 -11.6703
   -11.5957 -11.5950 -11.5156 -11.3699 -11.3694 -11.3208 -11.3018 -11.3010
   -11.2900 -11.2366 -11.0717 -11.0513  -8.7475  -8.7473  -8.7360  -8.6953
    -8.4289  -3.0065  -3.0043  -2.9642  -2.8523  -2.7814  -2.7689  -2.7444
    -2.7414  -2.7395  -2.6245  -2.6225  -2.4731  -2.4336  -2.3915  -2.3844
    -2.3824  -2.3243  -2.2714  -2.2440  -2.2395  -2.1936  -1.9962  -1.8104
    -1.8047  -1.7653  -1.6812  -1.6706  -1.6127  -1.5240  -1.5181  -1.4850
    -1.4582  -1.4418  -1.4321  -1.4089  -1.3651  -1.3604  -1.3488  -1.2927
    -1.2899  -1.2768  -1.1653  -1.1436  -1.1038  -1.0903  -1.0675  -1.0313
    -0.9823  -0.9404  -0.9233  -0.9116  -0.8711  -0.8663  -0.8526  -0.8363
    -0.8050  -0.7536  -0.6873  -0.6796  -0.5455  -0.5039  -0.4954  -0.4901
     0.7460   1.1522   1.1837   1.1838   1.4228   1.4229   1.4337   1.4351
     1.5018   1.5186   1.5190   1.5376   1.6002   1.6396   1.6403   1.6530
     1.7562   1.7568   1.8000   2.0399   2.0407   2.0849   2.1358   2.1367
     2.1901   2.2419   2.2759   2.2774   2.3021   2.4008   2.4022   2.4180
     2.4289   2.4303   2.4919   2.5224   2.5249   2.5427   2.5651   2.5941
     2.6970   2.7753   2.7770   2.8398   2.9916   3.0437   3.1072   3.1764
     3.1776   3.2076   3.2132   3.2400   3.3382   3.3416   3.3673   3.3737
     3.3760   3.4153   3.4920   3.5648   3.5780   3.5847   3.6122   3.6547
     3.6765   3.6897   3.6941   3.7074   3.7532   3.7570   3.7579   3.8403
     3.9617   3.9825   3.9954   4.0023   4.0086   4.0185   4.0313   4.1218
     4.1512   4.1538   4.2194   4.2207   4.2567   4.2768   4.2812   4.2879
     4.3075   4.3359   4.3535   4.3666   4.3754   4.4523   4.4597   4.4737
     4.4755   4.5421   4.5481   4.6426   4.6677   4.6957   4.7237   4.7437
     4.7501   4.7589   4.8082   4.8233   4.8555   4.9039   4.9150   4.9204
     4.9489   4.9534   4.9791   5.0388   5.0667   5.1157   5.1255   5.1582
     5.1712   5.2053   5.2563   5.2745   5.3050   5.3323   5.3433   5.4288
     5.4442   5.4461   5.4483   5.4935   5.5282   5.5315   5.5443   5.5507
     5.5632   5.6451   5.6764   5.6995   5.7255   5.7287   5.7354   5.7379
     5.7637   5.7868   5.7979   5.8032   5.8132   5.8629   5.8654   5.8688
     5.8761   5.9225   5.9330   5.9415   5.9476   5.9693   5.9919   5.9950
     6.0038   6.0165   6.0232   6.0298   6.0373   6.0467   6.0741   6.1556
     6.1813   6.1863   6.2024   6.2268   6.2287   6.2323   6.2441   6.2852
     6.2914   6.2918   6.3141   6.3472   6.3722   6.3797   6.3936   6.4317
     6.4420   6.4578   6.5128   6.5189   6.5282   6.5351   6.6253   6.6327
     6.6504   6.6658   6.6762   6.6940   6.7139   6.7389   6.7766   6.7880

          k = 0.5000-0.2887 0.0000 (108310 PWs)   bands (ev):

   -67.0223 -67.0213 -67.0007 -66.9998 -66.9752 -66.9737 -66.9722 -66.9714
   -66.9696 -66.9686 -66.9616 -66.9611 -66.9599 -66.9585 -66.9556 -66.9555
   -66.9442 -66.9434 -66.9424 -66.9399 -66.9380 -66.9371 -66.9354 -66.9313
   -66.7734 -66.7731 -66.7576 -66.7575 -66.7381 -66.7378 -66.7353 -66.7351
   -66.7302 -66.7302 -66.7272 -66.7269 -66.6878 -66.6704 -66.6625 -66.6588
   -66.6409 -66.6312 -66.6208 -66.6188 -66.6158 -66.6152 -66.6146 -66.6095
   -38.8275 -38.8257 -38.8040 -38.8018 -38.6993 -38.6968 -38.6928 -38.6924
   -38.6696 -38.6672 -38.6656 -38.6638 -38.6308 -38.6294 -38.6038 -38.6012
   -38.5685 -38.5657 -38.5574 -38.5570 -38.5533 -38.5501 -38.5330 -38.5305
   -38.4938 -38.4927 -38.4815 -38.4813 -38.4273 -38.4261 -38.4037 -38.4034
   -38.3980 -38.3976 -38.3881 -38.3873 -38.3764 -38.3757 -38.3652 -38.3642
   -38.3592 -38.3585 -38.3512 -38.3500 -38.3381 -38.3372 -38.3060 -38.3049
   -38.3048 -38.3046 -38.3002 -38.2992 -38.2971 -38.2966 -38.2924 -38.2865
   -38.2807 -38.2801 -38.2776 -38.2718 -38.2707 -38.2703 -38.2476 -38.2464
   -38.2346 -38.2272 -38.2249 -38.2213 -38.2194 -38.2189 -38.2168 -38.2150
   -38.2053 -38.2019 -38.1988 -38.1967 -38.1722 -38.1687 -38.1683 -38.1679
   -38.1643 -38.1639 -38.1516 -38.1507 -38.1346 -38.1334 -38.1233 -38.1149
   -38.1130 -38.1045 -38.0988 -38.0941 -38.0913 -38.0878 -38.0806 -38.0793
   -38.0739 -38.0726 -38.0587 -38.0564 -38.0550 -38.0507 -38.0302 -38.0285
   -38.0197 -38.0180 -38.0069 -38.0051 -37.9937 -37.9931 -37.9784 -37.9776
   -37.9766 -37.9742 -37.9688 -37.9675 -37.9541 -37.9534 -37.9502 -37.9498
   -37.9408 -37.9404 -37.9394 -37.9389 -37.9055 -37.9048 -37.9009 -37.9008
   -37.8907 -37.8904 -37.8817 -37.8814 -37.8646 -37.8497 -37.8481 -37.8456
   -37.7388 -37.7273 -37.7262 -37.7165 -37.7095 -37.7079 -37.7016 -37.6959
   -12.2968 -12.2950 -11.9240 -11.9231 -11.9113 -11.9083 -11.6787 -11.6780
   -11.5077 -11.5073 -11.3837 -11.3814 -11.3697 -11.3688 -11.3457 -11.3454
   -11.1653 -11.1604 -11.1441 -11.1437  -8.7492  -8.7488  -8.7145  -8.7142
    -8.4289  -2.9723  -2.9672  -2.8773  -2.8767  -2.8124  -2.8094  -2.8063
    -2.8061  -2.6835  -2.6833  -2.5678  -2.5656  -2.4049  -2.4011  -2.3389
    -2.3364  -2.2868  -2.2822  -2.1633  -2.1563  -2.0744  -2.0722  -1.8811
    -1.8792  -1.7469  -1.7399  -1.7021  -1.6944  -1.6160  -1.6035  -1.4912
    -1.4805  -1.4756  -1.4742  -1.3721  -1.3519  -1.3048  -1.3014  -1.2884
    -1.2839  -1.1889  -1.1688  -1.1349  -1.1005  -1.0849  -1.0678  -1.0393
    -1.0238  -0.9365  -0.9289  -0.8919  -0.8814  -0.8687  -0.8485  -0.7683
    -0.7613  -0.7052  -0.6929  -0.6588  -0.6552  -0.5245  -0.5195  -0.4982
     0.9861   0.9901   1.1716   1.1718   1.4021   1.4046   1.4231   1.4235
     1.4988   1.4990   1.5151   1.5158   1.6568   1.6591   1.6688   1.6730
     1.8942   1.8963   1.9005   1.9022   2.0722   2.0767   2.1118   2.1142
     2.2043   2.2063   2.3373   2.3376   2.3596   2.3611   2.3921   2.3931
     2.4308   2.4313   2.4433   2.4441   2.5512   2.5549   2.7214   2.7255
     2.7774   2.7787   2.7954   2.8014   2.9949   2.9977   3.0140   3.0165
     3.0850   3.0851   3.1799   3.1860   3.3025   3.3074   3.3634   3.3669
     3.3969   3.4006   3.4938   3.4969   3.5918   3.6007   3.6456   3.6510
     3.7090   3.7171   3.7902   3.7925   3.8476   3.8526   3.8799   3.8865
     3.9173   3.9181   3.9385   3.9544   3.9796   3.9876   4.0953   4.1150
     4.1258   4.1287   4.2312   4.2537   4.2701   4.2955   4.3097   4.3224
     4.3316   4.3378   4.3459   4.3617   4.4122   4.4355   4.4420   4.4470
     4.4570   4.4620   4.5837   4.5860   4.5975   4.6245   4.6550   4.6555
     4.6735   4.6788   4.7855   4.8167   4.9574   4.9648   4.9673   4.9703
     4.9747   4.9954   5.0398   5.0682   5.0946   5.0957   5.1108   5.1196
     5.1590   5.1652   5.2438   5.2545   5.3198   5.3203   5.3318   5.3343
     5.4144   5.4173   5.4395   5.4634   5.5002   5.5027   5.5388   5.5480
     5.5598   5.5657   5.5728   5.6152   5.6838   5.6869   5.7199   5.7275
     5.7338   5.7433   5.7580   5.7773   5.8230   5.8334   5.8517   5.8622
     5.8741   5.8794   5.8869   5.8959   5.9470   5.9666   5.9800   5.9821
     6.0151   6.0266   6.0507   6.0859   6.1309   6.1394   6.1488   6.1523
     6.1550   6.1645   6.1744   6.1864   6.1894   6.2205   6.3158   6.3196
     6.3214   6.3526   6.3613   6.3648   6.4022   6.4149   6.4240   6.4328
     6.4401   6.4463   6.4724   6.4851   6.5884   6.5928   6.5990   6.5997
     6.6311   6.6407   6.6864   6.7174   6.8283   6.8303   6.8414   6.8548

          k =-0.5000-0.2887 0.0000 (108310 PWs)   bands (ev):

   -67.0223 -67.0213 -67.0007 -66.9999 -66.9751 -66.9737 -66.9723 -66.9718
   -66.9694 -66.9683 -66.9616 -66.9609 -66.9599 -66.9585 -66.9558 -66.9555
   -66.9442 -66.9434 -66.9423 -66.9403 -66.9381 -66.9366 -66.9353 -66.9314
   -66.7733 -66.7732 -66.7576 -66.7575 -66.7381 -66.7378 -66.7352 -66.7352
   -66.7303 -66.7302 -66.7272 -66.7269 -66.6878 -66.6706 -66.6623 -66.6586
   -66.6410 -66.6311 -66.6228 -66.6166 -66.6160 -66.6152 -66.6138 -66.6104
   -38.8275 -38.8258 -38.8038 -38.8019 -38.6992 -38.6969 -38.6929 -38.6926
   -38.6695 -38.6673 -38.6653 -38.6637 -38.6307 -38.6295 -38.6038 -38.6016
   -38.5683 -38.5657 -38.5574 -38.5569 -38.5533 -38.5504 -38.5328 -38.5305
   -38.4938 -38.4929 -38.4814 -38.4813 -38.4271 -38.4259 -38.4038 -38.4034
   -38.3980 -38.3977 -38.3880 -38.3872 -38.3766 -38.3760 -38.3652 -38.3645
   -38.3592 -38.3587 -38.3511 -38.3499 -38.3379 -38.3371 -38.3062 -38.3048
   -38.3047 -38.3046 -38.3001 -38.2992 -38.2972 -38.2965 -38.2917 -38.2864
   -38.2809 -38.2800 -38.2779 -38.2720 -38.2706 -38.2703 -38.2476 -38.2466
   -38.2339 -38.2272 -38.2256 -38.2216 -38.2198 -38.2185 -38.2170 -38.2153
   -38.2041 -38.2010 -38.1995 -38.1965 -38.1728 -38.1689 -38.1682 -38.1679
   -38.1644 -38.1641 -38.1514 -38.1504 -38.1348 -38.1340 -38.1224 -38.1150
   -38.1133 -38.1049 -38.0984 -38.0942 -38.0913 -38.0881 -38.0810 -38.0791
   -38.0742 -38.0721 -38.0589 -38.0568 -38.0545 -38.0502 -38.0308 -38.0286
   -38.0197 -38.0181 -38.0065 -38.0045 -37.9937 -37.9931 -37.9787 -37.9779
   -37.9758 -37.9731 -37.9694 -37.9680 -37.9545 -37.9534 -37.9507 -37.9493
   -37.9408 -37.9404 -37.9395 -37.9388 -37.9054 -37.9049 -37.9009 -37.9009
   -37.8906 -37.8905 -37.8816 -37.8814 -37.8646 -37.8503 -37.8469 -37.8462
[...]
     6.7151   6.7467   6.7708   6.7838   6.8266   6.8490   6.9012   6.9224

          k = 0.5000-0.0000 0.0000 (108308 PWs)   bands (ev):

   -66.9573 -66.9455 -66.9448 -66.9233 -66.9131 -66.9082 -66.9058 -66.9022
   -66.9008 -66.8978 -66.8967 -66.8955 -66.8944 -66.8918 -66.8891 -66.8838
   -66.8764 -66.8736 -66.8680 -66.8665 -66.8637 -66.8634 -66.8594 -66.8537
   -66.7145 -66.7067 -66.7064 -66.6958 -66.6691 -66.6657 -66.6639 -66.6631
   -66.6597 -66.6590 -66.6567 -66.6552 -66.6226 -66.5980 -66.5974 -66.5866
   -66.5851 -66.5779 -66.5463 -66.5448 -66.5370 -66.5335 -66.5292 -66.5248
   -38.7510 -38.7360 -38.7357 -38.7140 -38.6243 -38.6230 -38.6177 -38.6097
   -38.6002 -38.5988 -38.5943 -38.5905 -38.5623 -38.5480 -38.5462 -38.5109
   -38.5068 -38.5000 -38.4985 -38.4956 -38.4855 -38.4808 -38.4797 -38.4766
   -38.4207 -38.4198 -38.4194 -38.4122 -38.4043 -38.3980 -38.3960 -38.3950
   -38.3854 -38.3235 -38.3212 -38.3181 -38.3178 -38.3061 -38.3051 -38.2947
   -38.2915 -38.2878 -38.2861 -38.2830 -38.2648 -38.2593 -38.2579 -38.2547
   -38.2540 -38.2497 -38.2480 -38.2453 -38.2352 -38.2345 -38.2285 -38.2265
   -38.2207 -38.2163 -38.2135 -38.2013 -38.2001 -38.1983 -38.1969 -38.1728
   -38.1690 -38.1652 -38.1639 -38.1635 -38.1547 -38.1529 -38.1486 -38.1401
   -38.1352 -38.1342 -38.1273 -38.1221 -38.1101 -38.1022 -38.0997 -38.0940
   -38.0934 -38.0906 -38.0905 -38.0831 -38.0798 -38.0716 -38.0593 -38.0551
   -38.0511 -38.0482 -38.0185 -38.0165 -38.0130 -38.0074 -38.0038 -37.9968
   -37.9878 -37.9826 -37.9798 -37.9721 -37.9686 -37.9675 -37.9591 -37.9589
   -37.9444 -37.9314 -37.9254 -37.9223 -37.9138 -37.9110 -37.9060 -37.9044
   -37.8970 -37.8959 -37.8929 -37.8887 -37.8802 -37.8796 -37.8776 -37.8720
   -37.8710 -37.8688 -37.8679 -37.8659 -37.8332 -37.8324 -37.8260 -37.8214
   -37.8197 -37.8105 -37.8094 -37.8019 -37.7905 -37.7836 -37.7801 -37.7784
   -37.6845 -37.6814 -37.6503 -37.6418 -37.6290 -37.6246 -37.6168 -37.6098
   -12.2341 -12.0209 -12.0184 -11.8339 -11.6903 -11.6893 -11.6539 -11.4794
   -11.4095 -11.3546 -11.3305 -11.3247 -11.2675 -11.2574 -11.1417 -11.1349
   -11.0526 -11.0515 -11.0139 -10.9344  -9.2169  -9.1679  -9.1670  -9.1278
    -8.3268  -2.9103  -2.8144  -2.8016  -2.7934  -2.6763  -2.6739  -2.6232
    -2.5914  -2.5395  -2.5345  -2.5027  -2.4995  -2.4606  -2.2870  -2.1391
    -2.1366  -2.1276  -2.0854  -2.0499  -2.0485  -1.9939  -1.9928  -1.8746
    -1.6951  -1.6861  -1.6045  -1.5894  -1.5216  -1.4590  -1.4446  -1.3717
    -1.3412  -1.3264  -1.3065  -1.2984  -1.2942  -1.2808  -1.2139  -1.1357
    -1.1008  -1.0981  -1.0539  -1.0463  -1.0246  -0.9759  -0.8920  -0.8729
    -0.8583  -0.8292  -0.7950  -0.7860  -0.7613  -0.7403  -0.7180  -0.7041
    -0.6330  -0.6230  -0.6065  -0.5545  -0.4602  -0.4506  -0.4311  -0.3086
     0.7875   0.8418   0.8447   0.8810   1.0800   1.0811   1.1266   1.1308
     1.1318   1.1890   1.1954   1.1957   1.3945   1.5227   1.5511   1.7380
     1.8891   1.9878   2.0053   2.0280   2.0938   2.1029   2.1109   2.1188
     2.2055   2.2804   2.2821   2.3463   2.4220   2.4246   2.4596   2.4627
     2.4995   2.5585   2.6172   2.6293   2.6306   2.7184   2.7278   2.7734
     2.8401   2.8425   2.8603   2.8808   2.9549   2.9562   2.9695   3.0569
     3.2003   3.2915   3.3333   3.3400   3.3759   3.3802   3.4003   3.4699
     3.4796   3.5013   3.5032   3.5856   3.5876   3.6026   3.6851   3.7474
     3.7546   3.7830   3.7946   3.8149   3.8248   3.8831   3.9049   3.9064
     4.0557   4.0669   4.0776   4.1044   4.1101   4.1230   4.1357   4.1589
     4.1788   4.2304   4.2664   4.2736   4.2860   4.3227   4.3376   4.3413
     4.3692   4.3899   4.4299   4.4571   4.4728   4.4873   4.4972   4.5151
     4.5894   4.5932   4.6094   4.6169   4.6387   4.6462   4.6763   4.7076
     4.7327   4.8690   4.8995   4.9040   4.9290   4.9583   4.9618   4.9730
     5.0204   5.0623   5.0822   5.1086   5.1638   5.1773   5.2195   5.2275
     5.2341   5.2959   5.3267   5.3537   5.3830   5.3950   5.4299   5.4697
     5.4810   5.4844   5.4910   5.5253   5.5385   5.5579   5.5703   5.6310
     5.6453   5.6581   5.6951   5.7592   5.7637   5.7704   5.7876   5.7966
     5.8197   5.8240   5.8312   5.8498   5.8752   5.8920   5.8986   5.9204
     5.9393   5.9439   5.9615   5.9668   5.9816   5.9983   6.0304   6.0736
     6.0883   6.1116   6.1282   6.1372   6.1404   6.1705   6.1812   6.2328
     6.2501   6.2564   6.2799   6.3033   6.3162   6.3396   6.3452   6.3577
     6.3924   6.4033   6.4161   6.4660   6.5096   6.5109   6.5395   6.5482
     6.5661   6.5730   6.6074   6.6094   6.6423   6.6740   6.7022   6.7136
     6.7157   6.7614   6.7721   6.7932   6.8113   6.8558   6.8981   6.9187

     the Fermi energy is     5.2412 ev

!    total energy              =  -12616.47455746 Ry
     total all-electron energy =   -103594.978364 Ry
     estimated scf accuracy    <          3.8E-11 Ry
     smearing contrib. (-TS)   =       0.00998754 Ry
     internal energy E=F+TS    =  -12616.48454500 Ry

     The total energy is F=E-TS. E is the sum of the following terms:
     one-electron contribution =  -67365.29834525 Ry
     hartree contribution      =   33797.51629955 Ry
     xc contribution           =   -1216.08928366 Ry
     ewald contribution        =   25929.75394187 Ry
     DFT-D3 Dispersion         =      -1.08531869 Ry
     one-center paw contrib.   =   -3761.28183882 Ry

     convergence has been achieved in  41 iterations

     negative rho (up, down):  2.012E-04 0.000E+00

     Forces acting on atoms (cartesian axes, Ry/au):

     atom    1 type  1   force =     0.00003313   -0.00027667    0.00016571
     atom    2 type  1   force =    -0.00000427   -0.00005627   -0.00004823
     atom    3 type  1   force =     0.00011699   -0.00015754    0.00017549
     atom    4 type  1   force =    -0.00020889   -0.00013284   -0.00002696
     atom    5 type  1   force =     0.00002442    0.00026212    0.00023660
     atom    6 type  1   force =     0.00006435    0.00022729   -0.00016845
     atom    7 type  2   force =    -0.00018716    0.00059742    0.00023990
     atom    8 type  2   force =     0.00003306    0.00007722    0.00059225
     atom    9 type  2   force =    -0.00003987    0.00005073    0.00080331
     atom   10 type  1   force =    -0.00031221    0.00003961   -0.00026071
     atom   11 type  1   force =    -0.00026307   -0.00028298    0.00018315
     atom   12 type  1   force =     0.00044982   -0.00039558   -0.00026032
     atom   13 type  1   force =    -0.00003142   -0.00027666   -0.00017307
     atom   14 type  1   force =    -0.00022088   -0.00031300    0.00015556
     atom   15 type  1   force =    -0.00022641    0.00008257    0.00060017
     atom   16 type  2   force =     0.00006471   -0.00029478   -0.00033820
     atom   17 type  2   force =     0.00034317    0.00003317   -0.00025219
     atom   18 type  2   force =    -0.00007582   -0.00066658   -0.00055098
     atom   19 type  1   force =    -0.00007161   -0.00027777   -0.00012683
     atom   20 type  1   force =    -0.00017282    0.00002987    0.00009619
     atom   21 type  1   force =    -0.00000912    0.00033492    0.00013167
     atom   22 type  1   force =     0.00002044   -0.00024388    0.00017900
     atom   23 type  1   force =     0.00008075    0.00018864   -0.00052026
     atom   24 type  1   force =     0.00013944   -0.00001805    0.00005837
     atom   25 type  2   force =     0.00035293   -0.00004899    0.00004019
     atom   26 type  2   force =    -0.00006215   -0.00002941    0.00073362
     atom   27 type  2   force =    -0.00009413    0.00005403    0.00022800
     atom   28 type  1   force =     0.00017587   -0.00000031    0.00008522
     atom   29 type  1   force =    -0.00001948    0.00004099   -0.00010728
     atom   30 type  1   force =    -0.00033093   -0.00009142   -0.00024449
     atom   31 type  1   force =    -0.00025534    0.00035687    0.00020213
     atom   32 type  1   force =    -0.00037669   -0.00009709    0.00045085
     atom   33 type  1   force =    -0.00062580   -0.00002182    0.00090627
     atom   34 type  2   force =    -0.00018252    0.00005467   -0.00069450
     atom   35 type  2   force =    -0.00008260    0.00056887   -0.00064978
     atom   36 type  2   force =    -0.00015867   -0.00000395   -0.00005709
     atom   37 type  1   force =     0.00043759   -0.00026088    0.00027073
     atom   38 type  1   force =    -0.00004141   -0.00000218    0.00010184
     atom   39 type  1   force =    -0.00001817    0.00033234   -0.00012731
     atom   40 type  1   force =     0.00010040   -0.00020273   -0.00043324
     atom   41 type  1   force =    -0.00031713   -0.00009513   -0.00042348
     atom   42 type  1   force =     0.00012494   -0.00015987   -0.00016719
     atom   43 type  2   force =    -0.00015852   -0.00053504    0.00026072
     atom   44 type  2   force =    -0.00002560   -0.00004268    0.00033683
     atom   45 type  2   force =    -0.00007333   -0.00002159   -0.00029105
     atom   46 type  1   force =     0.00058358   -0.00057139   -0.00042177
     atom   47 type  1   force =    -0.00029955    0.00017033    0.00024243
     atom   48 type  1   force =     0.00028864    0.00005974   -0.00008742
     atom   49 type  1   force =    -0.00039523    0.00013635    0.00039692
     atom   50 type  1   force =    -0.00015404    0.00040962    0.00012913
     atom   51 type  1   force =    -0.00027269   -0.00020347    0.00051013
     atom   52 type  2   force =     0.00004121    0.00030919   -0.00045346
     atom   53 type  2   force =    -0.00007823   -0.00007081   -0.00025869
     atom   54 type  2   force =     0.00012570    0.00009900    0.00063357
     atom   55 type  1   force =     0.00013193    0.00011659    0.00016228
     atom   56 type  1   force =     0.00015895    0.00004055   -0.00053869
     atom   57 type  1   force =     0.00043807    0.00014282    0.00021506
     atom   58 type  1   force =    -0.00030685    0.00012840   -0.00043647
     atom   59 type  1   force =    -0.00019399    0.00010454   -0.00004630
     atom   60 type  1   force =    -0.00013836   -0.00002819   -0.00043577
     atom   61 type  2   force =    -0.00024538   -0.00004403    0.00012338
     atom   62 type  2   force =    -0.00007828    0.00003484   -0.00036864
     atom   63 type  2   force =     0.00005864   -0.00007787    0.00054785
     atom   64 type  1   force =     0.00047663    0.00030474   -0.00027828
     atom   65 type  1   force =     0.00089644   -0.00005485   -0.00007893
     atom   66 type  1   force =     0.00046313    0.00060752   -0.00045189
     atom   67 type  1   force =    -0.00014537   -0.00048172    0.00019394
     atom   68 type  1   force =    -0.00003680    0.00044894   -0.00038330
     atom   69 type  1   force =     0.00007828    0.00005732    0.00047618
     atom   70 type  2   force =     0.00011081   -0.00001879   -0.00057636
     atom   71 type  2   force =     0.00018047   -0.00012080    0.00070717
     atom   72 type  2   force =     0.00031369   -0.00006930   -0.00029517
     atom   73 type  3   force =     0.00006449    0.00028567    0.00015443
     atom   74 type  4   force =     0.00048846   -0.00039055    0.00040051
     atom   75 type  4   force =    -0.00026587   -0.00029273   -0.00066186
     atom   76 type  4   force =    -0.00011736    0.00092145    0.00008015
     atom   77 type  4   force =    -0.00008713   -0.00027876   -0.00051229

     Total force =     0.004684     Total SCF correction =     0.000038
     Energy error            =      4.2E-05 Ry
     Gradient error          =      9.2E-04 Ry/Bohr

     bfgs converged in  27 scf cycles and  26 bfgs steps
     (criteria: energy <  1.0E-04 Ry, force <  1.0E-03 Ry/Bohr)

     End of BFGS Geometry Optimization

     Final energy             =  -12616.4745574618 Ry

     File tmp/CH4-H22_Rot0_ontop_/CH4-H22_Rot0_ontop_.bfgs deleted, as requested
Begin final coordinates

ATOMIC_POSITIONS (angstrom)
Cr              -1.5843857886        2.7679055409        8.2178045111
Cr               3.1973920106       -0.0009113207        8.2281505736
Cr               0.7817664659        1.3561840210        8.2223201999
Cr               1.6416629707        2.8233498161        6.0916427958
Cr              -0.7399379631        1.2877475761        6.0904785666
Cr               1.4979912047       -0.0018590086        6.0982759067
N                0.0080222954       -0.0083079467        5.0534772517
N                2.3801826092        1.3708525023        7.0832775491
N                0.0073238618        2.7449687064        7.0670341459
Cr              -1.6635453238        2.8545089900       12.4945005408
Cr               3.2922366972        0.0010796402       12.4956423316
Cr               0.7089497736        1.2259350569       12.4865170115
Cr               1.5817978478        2.7729950489       10.4376893187
Cr              -0.7720977395        1.3611422794       10.4250484491
Cr               1.5635129942        0.0011959388       10.4133148209
N                0.0036878541        0.0093430740        9.3065015249
N                2.3663484623        1.3744600943       11.5387499189
N                0.0123304176        2.7576594944       11.5761152213
Cr              -3.9628352025        6.8852860128        8.2291981871
Cr               0.8239830709        4.1140676268        8.2177120812
Cr              -1.5837294826        5.4603724736        8.2188692217
Cr              -0.7399719772        6.9413701529        6.0920640509
Cr              -3.1206744012        5.4053607560        6.1045994958
Cr              -0.8816436162        4.1151890754        6.0841157186
N               -2.3819088600        4.1157339577        5.0543115022
N                0.0078361190        5.4844663649        7.0687345260
N               -2.3673428868        6.8560212176        7.0831895948
Cr              -4.0148077819        6.9615261614       12.4986861179
Cr               0.8659739376        4.1099108033       12.6267650741
Cr              -1.6667207008        5.3783768283       12.4883661191
Cr              -0.7693719288        6.8652028551       10.4245736573
Cr              -3.1430536717        5.4715422135       10.4045909925
Cr              -0.7949757858        4.1149537277       10.4276330612
N               -2.3523835392        4.1138601418        9.3119062755
N                0.0161612462        5.4685138502       11.5809583707
N               -2.3704346299        6.8652364675       11.5288031434
Cr               3.1522621198        2.7664285259        8.2296882876
Cr               7.9482595890        0.0016822125        8.2267018373
Cr               5.5399966226        1.3434226976        8.2282817777
Cr               6.3820191687        2.8248330933        6.1029777694
Cr               4.0134543394        1.2936105189        6.1020458516
Cr               6.2487006743        0.0008990742        6.0973000088
N                4.7582906036        0.0067410048        5.0531901554
N                7.1349018080        1.3732879551        7.0806233345
N                4.7545918993        2.7421825805        7.0971624513
Cr               3.1385995033        2.8291991869       12.4684801849
Cr               8.0442027242        0.0002335548       12.4974415313
Cr               5.4876622517        1.2707029653       12.5029528799
Cr               6.3596044888        2.7570233670       10.4049952117
Cr               3.9707609728        1.3486402590       10.4208298416
Cr               6.3143827255        0.0019379093       10.4163508926
N                4.7561667137       -0.0088292160        9.3079911328
N                7.1316883571        1.3677542628       11.5340670724
N                4.7698952696        2.7441844204       11.5191719570
Cr               0.7821430199        6.8729909136        8.2240787561
Cr               5.5739074765        4.1140653948        8.2367505701
Cr               3.1516539661        5.4636312707        8.2304408814
Cr               4.0136097950        6.9351838093        6.1025707501
Cr               1.6411769245        5.4062576271        6.0920115855
Cr               3.8790773760        4.1149132864        6.1061905073
N                2.3944704898        4.1151538006        5.0536175542
N                4.7544999781        5.4869308783        7.0983757768
N                2.3801535285        6.8588395137        7.0829025752
Cr               0.7085063084        7.0093392895       12.4844618221
Cr               5.6912927460        4.1154891638       12.4911140020
Cr               3.1423849130        5.4051882331       12.4720020009
Cr               3.9683663852        6.8819611843       10.4209481711
Cr               1.5843532550        5.4567637976       10.4387056019
Cr               3.9445321047        4.1151873476       10.4078288516
N                2.3678482593        4.1146470925        9.3183028058
N                4.7700981567        5.4859496964       11.5182713742
N                2.3667901984        6.8560929314       11.5396704594
C                0.8386627787        4.1252871169       15.1945988157
H                1.6036666280        4.6444559294       15.7792079571
H                0.2135948165        3.4711798937       15.8108591659
H                0.1882943051        4.8749476609       14.7091365119
H                1.3903933600        3.4487874155       14.4780062582
End final coordinates



     Writing all to output data dir tmp/CH4-H22_Rot0_ontop_/CH4-H22_Rot0_ontop_.save/ :
     XML data file, charge density, pseudopotentials, collected wavefunctions
 
     init_run     :     18.44s CPU     19.32s WALL (       1 calls)
     electrons    :  45193.15s CPU  46460.53s WALL (      27 calls)
     update_pot   :     32.77s CPU     34.31s WALL (      26 calls)
     forces       :    274.69s CPU    284.66s WALL (      27 calls)
     force_dftd3  :      6.39s CPU      6.75s WALL (      27 calls)

     Called by init_run:
     wfcinit      :     13.92s CPU     14.37s WALL (       1 calls)
     potinit      :      1.03s CPU      1.19s WALL (       1 calls)
     hinit0       :      0.34s CPU      0.40s WALL (       1 calls)

     Called by electrons:
     c_bands      :  37134.18s CPU  37952.70s WALL (    1150 calls)
     sum_band     :   6360.62s CPU   6595.07s WALL (    1150 calls)
     v_of_rho     :    661.71s CPU    709.13s WALL (    1157 calls)
     newd         :    495.00s CPU    640.55s WALL (    1157 calls)
     PAW_pot      :    416.89s CPU    422.66s WALL (    1183 calls)
     mix_rho      :     94.56s CPU    101.90s WALL (    1150 calls)
     energy_dftd3 :      3.04s CPU      3.06s WALL (      27 calls)

     Called by c_bands:
     init_us_2    :    665.28s CPU    674.45s WALL (    7062 calls)
     cegterg      :  34855.63s CPU  35652.64s WALL (    3450 calls)

     Called by *egterg:
     cdiaghg      :   1217.54s CPU   1232.20s WALL (   11600 calls)
     h_psi        :  17249.78s CPU  17599.84s WALL (   11741 calls)
     s_psi        :   4032.76s CPU   4077.35s WALL (   11741 calls)
     g_psi        :     78.19s CPU     79.23s WALL (    8288 calls)

     Called by h_psi:
     h_psi:calbec :   4082.63s CPU   4128.48s WALL (   11741 calls)
     vloc_psi     :   8981.89s CPU   9141.97s WALL (   11741 calls)
                                        0.00s GPU  (   11741 calls)
     add_vuspsi   :   4048.52s CPU   4094.74s WALL (   11741 calls)

     General routines
     calbec       :   6191.08s CPU   6259.25s WALL (   15593 calls)
     fft          :    528.00s CPU    571.90s WALL (   15330 calls)
     ffts         :      6.97s CPU      8.04s WALL (    2307 calls)
     fftw         :   8864.04s CPU   9013.72s WALL ( 8646460 calls)
     interpolate  :     38.03s CPU     42.32s WALL (    1157 calls)
 
     Parallel routines
 
     PWSCF        :     12h39m CPU     13h 1m WALL

 
   This run was terminated on:   2:28:36   4Jun2026            

=------------------------------------------------------------------------------=
   JOB DONE.
=------------------------------------------------------------------------------=
