
     Program PWSCF v.7.5 starts on  4Jun2026 at 17:51:21 

     This program is part of the open-source Quantum ESPRESSO suite
     for quantum simulation of materials; please cite
         "P. Giannozzi et al., J. Phys.:Condens. Matter 21 395502 (2009);
         "P. Giannozzi et al., J. Phys.:Condens. Matter 29 465901 (2017);
         "P. Giannozzi et al., J. Chem. Phys. 152 154105 (2020);
          URL http://www.quantum-espresso.org", 
     in publications or presentations arising from this work. More details at
     http://www.quantum-espresso.org/quote

     Parallel version (MPI & OpenMP), running on      64 processor cores
     Number of MPI processes:                64
     Threads/MPI process:                     1

     MPI processes distributed on     1 nodes
     506478 MiB available memory on the printing compute node when the environment starts
 
     Reading input from generated_inputs/adsorcion/pw-CH4-H31_Rot30_ontop_.in
Warning: card &CELL ignored

     Current dimensions of program PWSCF are:
     Max number of different atomic species (ntypx) = 10
     Max number of k-points (npk) =  40000
     Max angular momentum in pseudopotentials (lmaxx) =  4
     file Cr.pbe-spn-kjpaw_psl.1.0.0.UPF: wavefunction(s)  3S 3P 3D renormalized
     file N.pbe-n-kjpaw_psl.1.0.0.UPF: wavefunction(s)  2S renormalized
     file C.pbe-n-kjpaw_psl.1.0.0.UPF: wavefunction(s)  2S 2P renormalized
     file H.pbe-kjpaw_psl.1.0.0.UPF: wavefunction(s)  1S renormalized
 
     K-points division:     npool     =       4
     R & G space division:  proc/nbgrp/npool/nimage =      16
     Subspace diagonalization in iterative solution of the eigenvalue problem:
     one sub-group per band group will be used
     scalapack distributed-memory algorithm (size of sub-group:  4*  4 procs)

 
     Parallelization info
     --------------------
     sticks:   dense  smooth     PW     G-vecs:    dense   smooth      PW
     Min        1166     388    102               281408    54158    7274
     Max        1167     389    103               281417    54165    7281
     Sum       18661    6217   1639              4502593   866593  116429
 
     Using Slab Decomposition
 


     bravais-lattice index     =            0
     lattice parameter (alat)  =      17.9576  a.u.
     unit-cell volume          =   10952.5767 (a.u.)^3
     number of atoms/cell      =           77
     number of atomic types    =            4
     number of electrons       =       800.00
     number of Kohn-Sham states=          480
     kinetic-energy cutoff     =      70.0000  Ry
     charge density cutoff     =     840.0000  Ry
     scf convergence threshold =      1.0E-08
     mixing beta               =       0.2000
     number of iterations used =            8  plain     mixing
     energy convergence thresh.=      1.0E-04
     force convergence thresh. =      1.0E-03
     Exchange-correlation= SLA  PW   PBX  PBC
                           (   1   4   3   4   0   0   0)
     nstep                     =          200


     celldm(1)=  17.957575  celldm(2)=   0.000000  celldm(3)=   0.000000
     celldm(4)=   0.000000  celldm(5)=   0.000000  celldm(6)=   0.000000

     crystal axes: (cart. coord. in units of alat)
               a(1) = (   1.000000   0.000000   0.000000 )  
               a(2) = (  -0.500000   0.866025   0.000000 )  
               a(3) = (   0.000000   0.000000   2.183951 )  

     reciprocal axes: (cart. coord. in units 2 pi/alat)
               b(1) = (  1.000000  0.577351  0.000000 )  
               b(2) = (  0.000000  1.154701  0.000000 )  
               b(3) = (  0.000000  0.000000  0.457886 )  


     PseudoPot. # 1 for Cr read from file:
     pseudo/Cr.pbe-spn-kjpaw_psl.1.0.0.UPF
     MD5 check sum: 198f1a2427a48552563eee314eba32ba
     Pseudo is Projector augmented-wave + core cor, Zval = 14.0
     Generated using &quot;atomic&quot; code by A. Dal Corso  v.6.3
     Shape of augmentation charge: PSQ
     Using radial grid of 1183 points,  6 beta functions with: 
                l(1) =   0
                l(2) =   0
                l(3) =   1
                l(4) =   1
                l(5) =   2
                l(6) =   2
     Q(r) pseudized with 0 coefficients 


     PseudoPot. # 2 for N  read from file:
     pseudo/N.pbe-n-kjpaw_psl.1.0.0.UPF
     MD5 check sum: 14c48229446f9f2d411169a3abcbc3fa
     Pseudo is Projector augmented-wave + core cor, Zval =  5.0
     Generated using &quot;atomic&quot; code by A. Dal Corso  v.6.3
     Shape of augmentation charge: PSQ
     Using radial grid of 1085 points,  4 beta functions with: 
                l(1) =   0
                l(2) =   0
                l(3) =   1
                l(4) =   1
     Q(r) pseudized with 0 coefficients 


     PseudoPot. # 3 for C  read from file:
     pseudo/C.pbe-n-kjpaw_psl.1.0.0.UPF
     MD5 check sum: 5f16ad9a65e90284d1d834d4ab3b0f7d
     Pseudo is Projector augmented-wave + core cor, Zval =  4.0
     Generated using &quot;atomic&quot; code by A. Dal Corso  v.6.3
     Shape of augmentation charge: PSQ
     Using radial grid of 1073 points,  4 beta functions with: 
                l(1) =   0
                l(2) =   0
                l(3) =   1
                l(4) =   1
     Q(r) pseudized with 0 coefficients 


     PseudoPot. # 4 for H  read from file:
     pseudo/H.pbe-kjpaw_psl.1.0.0.UPF
     MD5 check sum: d81a744832360e4a8af0b0b5b123bc2a
     Pseudo is Projector augmented-wave, Zval =  1.0
     Generated using &quot;atomic&quot; code by A. Dal Corso  v.6.3MaX
     Shape of augmentation charge: PSQ
     Using radial grid of  929 points,  2 beta functions with: 
                l(1) =   0
                l(2) =   0
     Q(r) pseudized with 0 coefficients 


     atomic species   valence    mass     pseudopotential
     Cr               14.00    51.99610     Cr( 1.00)
     N                 5.00    14.00670     N ( 1.00)
     C                 4.00    12.01100     C ( 1.00)
     H                 1.00     1.00800     H ( 1.00)

     No symmetry found



   Cartesian axes

     site n.     atom                  positions (alat units)
         1        Cr     tau(   1) = (  -0.1681591   0.2912601   0.8673998  )
         2        Cr     tau(   2) = (   0.3363182   0.0000000   0.8673998  )
         3        Cr     tau(   3) = (   0.0818405   0.1417518   0.8673993  )
         4        Cr     tau(   4) = (   0.1684970   0.2918454   0.6425759  )
         5        Cr     tau(   5) = (  -0.0815030   0.1411673   0.6425759  )
         6        Cr     tau(   6) = (   0.1630059   0.0000000   0.6425759  )
         7        N      tau(   7) = (   0.0000000   0.0000000   0.5261641  )
         8        N      tau(   8) = (   0.2500000   0.1443376   0.7485579  )
         9        N      tau(   9) = (   0.0000000   0.2886752   0.7485579  )
        10        Cr     tau(  10) = (  -0.1730001   0.2996450   1.3148727  )
        11        Cr     tau(  11) = (   0.3460003   0.0000000   1.3148727  )
        12        Cr     tau(  12) = (   0.0770029   0.1333729   1.3148745  )
        13        Cr     tau(  13) = (   0.1677092   0.2904808   1.0968932  )
        14        Cr     tau(  14) = (  -0.0822901   0.1425306   1.0968938  )
        15        Cr     tau(  15) = (   0.1645802   0.0000000   1.0968938  )
        16        N      tau(  16) = (   0.0000000   0.0000000   0.9808490  )
        17        N      tau(  17) = (   0.2500004   0.1443372   1.2145625  )
        18        N      tau(  18) = (  -0.0000005   0.2886753   1.2145625  )
        19        Cr     tau(  19) = (  -0.4181595   0.7242736   0.8673993  )
        20        Cr     tau(  20) = (   0.0863184   0.4330126   0.8674001  )
        21        Cr     tau(  21) = (  -0.1681593   0.5747652   0.8674001  )
        22        Cr     tau(  22) = (  -0.0815030   0.7248581   0.6425759  )
        23        Cr     tau(  23) = (  -0.3315030   0.5741800   0.6425759  )
        24        Cr     tau(  24) = (  -0.0869941   0.4330127   0.6425759  )
        25        N      tau(  25) = (  -0.2500000   0.4330127   0.5261641  )
        26        N      tau(  26) = (   0.0000000   0.5773503   0.7485581  )
        27        N      tau(  27) = (  -0.2500000   0.7216878   0.7485579  )
        28        Cr     tau(  28) = (  -0.4229971   0.7326525   1.3148745  )
        29        Cr     tau(  29) = (   0.0959968   0.4330121   1.3148749  )
        30        Cr     tau(  30) = (  -0.1729989   0.5663837   1.3148749  )
        31        Cr     tau(  31) = (  -0.0822898   0.7234940   1.0968932  )
        32        Cr     tau(  32) = (  -0.3322908   0.5755446   1.0968932  )
        33        Cr     tau(  33) = (  -0.0854193   0.4330133   1.0968932  )
        34        N      tau(  34) = (  -0.2500001   0.4330128   0.9808490  )
        35        N      tau(  35) = (   0.0000000   0.5773503   1.2145635  )
        36        N      tau(  36) = (  -0.2499996   0.7216882   1.2145625  )
        37        Cr     tau(  37) = (   0.3318407   0.2912602   0.8674001  )
        38        Cr     tau(  38) = (   0.8363191   0.0000000   0.8673993  )
        39        Cr     tau(  39) = (   0.5818409   0.1417524   0.8674001  )
        40        Cr     tau(  40) = (   0.6684970   0.2918454   0.6425759  )
        41        Cr     tau(  41) = (   0.4184970   0.1411673   0.6425759  )
        42        Cr     tau(  42) = (   0.6630059   0.0000000   0.6425759  )
        43        N      tau(  43) = (   0.5000000   0.0000000   0.5261641  )
        44        N      tau(  44) = (   0.7500000   0.1443376   0.7485579  )
        45        N      tau(  45) = (   0.5000000   0.2886751   0.7485581  )
        46        Cr     tau(  46) = (   0.3270011   0.2996417   1.3148749  )
        47        Cr     tau(  47) = (   0.8459942   0.0000000   1.3148745  )
        48        Cr     tau(  48) = (   0.5770021   0.1333704   1.3148749  )
        49        Cr     tau(  49) = (   0.6677091   0.2904819   1.0968932  )
        50        Cr     tau(  50) = (   0.4177102   0.1425314   1.0968932  )
        51        Cr     tau(  51) = (   0.6645817   0.0000000   1.0968932  )
        52        N      tau(  52) = (   0.5000001   0.0000000   0.9808490  )
        53        N      tau(  53) = (   0.7500001   0.1443381   1.2145625  )
        54        N      tau(  54) = (   0.5000000   0.2886751   1.2145635  )
        55        Cr     tau(  55) = (   0.0818409   0.7242730   0.8674001  )
        56        Cr     tau(  56) = (   0.5863184   0.4330128   0.8674001  )
        57        Cr     tau(  57) = (   0.3318409   0.5747653   0.8673998  )
        58        Cr     tau(  58) = (   0.4184970   0.7248581   0.6425759  )
        59        Cr     tau(  59) = (   0.1684970   0.5741800   0.6425759  )
        60        Cr     tau(  60) = (   0.4130059   0.4330127   0.6425759  )
        61        N      tau(  61) = (   0.2500000   0.4330127   0.5261641  )
        62        N      tau(  62) = (   0.5000000   0.5773502   0.7485579  )
        63        N      tau(  63) = (   0.2500000   0.7216878   0.7485579  )
        64        Cr     tau(  64) = (   0.0770021   0.7326550   1.3148749  )
        65        Cr     tau(  65) = (   0.5959968   0.4330133   1.3148749  )
        66        Cr     tau(  66) = (   0.3269999   0.5663804   1.3148727  )
        67        Cr     tau(  67) = (   0.4177099   0.7234948   1.0968938  )
        68        Cr     tau(  68) = (   0.1677091   0.5755435   1.0968932  )
        69        Cr     tau(  69) = (   0.4145807   0.4330121   1.0968932  )
        70        N      tau(  70) = (   0.2499999   0.4330126   0.9808490  )
        71        N      tau(  71) = (   0.4999995   0.5773501   1.2145625  )
        72        N      tau(  72) = (   0.2500001   0.7216873   1.2145625  )
        73        C      tau(  73) = (   0.0959968   0.4330121   1.5635703  )
        74        H      tau(  74) = (   0.0960012   0.4330045   1.6782720  )
        75        H      tau(  75) = (   0.1500662   0.3393612   1.5253282  )
        76        H      tau(  76) = (  -0.0121464   0.4330146   1.5253406  )
        77        H      tau(  77) = (   0.1500662   0.5266681   1.5253406  )

     --------------------------------------------
     DFT-D3 Dispersion Correction (3-body terms):
     --------------------------------------------
       Reference C6 values for interpolation: 

         atom   Coordination number   C6
         H          0.912             6.05
         H          0.000            15.18
         C          0.000            98.23
         C          0.987            86.49
         C          1.998            58.72
         C          2.999            51.56
         C          3.984            36.41
         N          0.000            50.54
         N          0.994            44.25
         N          2.014            39.35
         N          2.990            31.16
         Cr         0.000          1381.48
         Cr         1.827           571.38
         Cr        10.619           306.69

       Values used:

         atom   Coordination number  R0_AB[au]  C6      C8
         Cr        12.627            3.252    306.69  28303.74
         Cr        12.627            3.252    306.69  28303.74
         Cr        12.627            3.252    306.69  28303.74
         Cr        10.143            3.252    306.69  28303.74
         Cr        10.143            3.252    306.69  28303.74
         Cr        10.143            3.252    306.69  28303.74
         N          3.022            2.478     31.29    690.36
         N          6.023            2.478     31.16    687.49
         N          6.023            2.478     31.16    687.49
         Cr         9.081            3.252    306.69  28303.74
         Cr         9.071            3.252    306.69  28303.74
         Cr         9.080            3.252    306.69  28303.74
         Cr        12.748            3.252    306.69  28303.74
         Cr        12.748            3.252    306.69  28303.74
         Cr        12.748            3.252    306.69  28303.74
         N          6.047            2.478     31.16    687.49
         N          6.032            2.478     31.16    687.49
         N          6.033            2.478     31.16    687.49
         Cr        12.627            3.252    306.69  28303.74
         Cr        12.627            3.252    306.69  28303.74
         Cr        12.627            3.252    306.69  28303.74
         Cr        10.143            3.252    306.69  28303.74
         Cr        10.143            3.252    306.69  28303.74
         Cr        10.143            3.252    306.69  28303.74
         N          3.022            2.478     31.29    690.36
         N          6.023            2.478     31.16    687.49
         N          6.023            2.478     31.16    687.49
         Cr         9.071            3.252    306.69  28303.74
         Cr         9.961            3.252    306.69  28303.74
         Cr         9.081            3.252    306.69  28303.74
         Cr        12.748            3.252    306.69  28303.74
         Cr        12.748            3.252    306.69  28303.74
         Cr        12.748            3.252    306.69  28303.74
         N          6.047            2.478     31.16    687.49
         N          6.033            2.478     31.16    687.49
         N          6.032            2.478     31.16    687.49
         Cr        12.627            3.252    306.69  28303.74
         Cr        12.627            3.252    306.69  28303.74
         Cr        12.627            3.252    306.69  28303.74
         Cr        10.143            3.252    306.69  28303.74
         Cr        10.143            3.252    306.69  28303.74
         Cr        10.143            3.252    306.69  28303.74
         N          3.022            2.478     31.29    690.36
         N          6.023            2.478     31.16    687.49
         N          6.023            2.478     31.16    687.49
         Cr         9.092            3.252    306.69  28303.74
         Cr         9.071            3.252    306.69  28303.74
         Cr         9.071            3.252    306.69  28303.74
         Cr        12.748            3.252    306.69  28303.74
         Cr        12.748            3.252    306.69  28303.74
         Cr        12.748            3.252    306.69  28303.74
         N          6.047            2.478     31.16    687.49
         N          6.032            2.478     31.16    687.49
         N          6.032            2.478     31.16    687.49
         Cr        12.627            3.252    306.69  28303.74
         Cr        12.627            3.252    306.69  28303.74
         Cr        12.627            3.252    306.69  28303.74
         Cr        10.143            3.252    306.69  28303.74
         Cr        10.143            3.252    306.69  28303.74
         Cr        10.143            3.252    306.69  28303.74
         N          3.022            2.478     31.29    690.36
         N          6.023            2.478     31.16    687.49
         N          6.023            2.478     31.16    687.49
         Cr         9.080            3.252    306.69  28303.74
         Cr         9.071            3.252    306.69  28303.74
         Cr         9.092            3.252    306.69  28303.74
         Cr        12.748            3.252    306.69  28303.74
         Cr        12.748            3.252    306.69  28303.74
         Cr        12.748            3.252    306.69  28303.74
         N          6.047            2.478     31.16    687.49
         N          6.032            2.478     31.16    687.49
         N          6.032            2.478     31.16    687.49
         C          4.687            2.750     36.41   1053.17
         H          0.997            2.062      6.18     74.75
         H          1.087            2.062      6.12     74.00
         H          1.082            2.062      6.12     74.03
         H          1.087            2.062      6.12     74.00

         Molecular C6 ( Ry / a.u.^6 ) =    974402.71


     number of k points=    10  Methfessel-Paxton smearing, width (Ry)=  0.0200
                       cart. coord. in units 2pi/alat
        k(    1) = (   0.0000000   0.0000000   0.0000000), wk =   0.1250000
        k(    2) = (   0.0000000   0.2886753   0.0000000), wk =   0.2500000
        k(    3) = (   0.0000000  -0.5773505   0.0000000), wk =   0.1250000
        k(    4) = (   0.2500000   0.4330129   0.0000000), wk =   0.2500000
        k(    5) = (  -0.2500000   0.1443376   0.0000000), wk =   0.2500000
        k(    6) = (   0.2500000   0.1443376   0.0000000), wk =   0.2500000
        k(    7) = (   0.5000000  -0.2886753   0.0000000), wk =   0.1250000
        k(    8) = (  -0.5000000  -0.2886753   0.0000000), wk =   0.1250000
        k(    9) = (  -0.2500000   0.4330129   0.0000000), wk =   0.2500000
        k(   10) = (   0.5000000  -0.0000000   0.0000000), wk =   0.2500000

     Dense  grid:  4502593 G-vectors     FFT dimensions: ( 180, 180, 375)

     Smooth grid:   866593 G-vectors     FFT dimensions: (  96,  96, 216)

     Estimated max dynamical RAM per process >     867.27 MB

     Estimated total dynamical RAM >      50.98 GB

     Initial potential from superposition of free atoms

     starting charge     799.9627, renormalised to     800.0000

     negative rho (up, down):  4.120E-04 0.000E+00
     Starting wfcs are  584 randomized atomic wfcs
     Checking if some PAW data can be deallocated... 

     total cpu time spent up to now is       24.6 secs

     Self-consistent Calculation

     iteration #  1     ecut=    70.00 Ry     beta= 0.20
     Davidson diagonalization with overlap
     ethr =  1.00E-02,  avg # of iterations =  2.7

     negative rho (up, down):  1.636E-04 0.000E+00

     total cpu time spent up to now is       79.9 secs

     total energy              =  -12610.62599372 Ry
     estimated scf accuracy    <      29.16330694 Ry

     iteration #  2     ecut=    70.00 Ry     beta= 0.20
     Davidson diagonalization with overlap
     ethr =  3.65E-03,  avg # of iterations =  6.4

     negative rho (up, down):  4.780E-04 0.000E+00

     total cpu time spent up to now is      135.2 secs

     total energy              =  -12600.32933661 Ry
     estimated scf accuracy    <     660.54605791 Ry

     iteration #  3     ecut=    70.00 Ry     beta= 0.20
     Davidson diagonalization with overlap
     ethr =  3.65E-03,  avg # of iterations =  2.7

     negative rho (up, down):  6.953E-04 0.000E+00

     total cpu time spent up to now is      176.8 secs

     total energy              =  -12608.92860033 Ry
     estimated scf accuracy    <     477.31354551 Ry

     iteration #  4     ecut=    70.00 Ry     beta= 0.20
     Davidson diagonalization with overlap
     ethr =  3.65E-03,  avg # of iterations =  1.9

     negative rho (up, down):  3.510E-04 0.000E+00

     total cpu time spent up to now is      216.7 secs

     total energy              =  -12614.71710591 Ry
     estimated scf accuracy    <      91.26737950 Ry

     iteration #  5     ecut=    70.00 Ry     beta= 0.20
     Davidson diagonalization with overlap
     ethr =  3.65E-03,  avg # of iterations =  1.7

     negative rho (up, down):  4.099E-04 0.000E+00

     total cpu time spent up to now is      256.2 secs

     total energy              =  -12615.44156136 Ry
     estimated scf accuracy    <      19.13141827 Ry

     iteration #  6     ecut=    70.00 Ry     beta= 0.20
     Davidson diagonalization with overlap
     ethr =  2.39E-03,  avg # of iterations =  1.4

     negative rho (up, down):  5.027E-04 0.000E+00

     total cpu time spent up to now is      295.3 secs

     total energy              =  -12616.15989870 Ry
     estimated scf accuracy    <       3.48636785 Ry

     iteration #  7     ecut=    70.00 Ry     beta= 0.20
     Davidson diagonalization with overlap
     ethr =  4.36E-04,  avg # of iterations = 12.6

     negative rho (up, down):  4.988E-04 0.000E+00

     total cpu time spent up to now is      347.0 secs

     total energy              =  -12616.33675108 Ry
     estimated scf accuracy    <       1.98669650 Ry

     iteration #  8     ecut=    70.00 Ry     beta= 0.20
     Davidson diagonalization with overlap
     ethr =  2.48E-04,  avg # of iterations =  2.1

     negative rho (up, down):  5.212E-04 0.000E+00

     total cpu time spent up to now is      387.3 secs

     total energy              =  -12616.35666247 Ry
     estimated scf accuracy    <       0.73658841 Ry

     iteration #  9     ecut=    70.00 Ry     beta= 0.20
     Davidson diagonalization with overlap
     ethr =  9.21E-05,  avg # of iterations =  6.7

     negative rho (up, down):  4.424E-04 0.000E+00

     total cpu time spent up to now is      433.6 secs

     total energy              =  -12616.35209269 Ry
     estimated scf accuracy    <       0.73750881 Ry

     iteration # 10     ecut=    70.00 Ry     beta= 0.20
     Davidson diagonalization with overlap
     ethr =  9.21E-05,  avg # of iterations =  1.5

     negative rho (up, down):  3.870E-04 0.000E+00

     total cpu time spent up to now is      472.0 secs

     total energy              =  -12616.34719461 Ry
     estimated scf accuracy    <       0.66358292 Ry

     iteration # 11     ecut=    70.00 Ry     beta= 0.20
     Davidson diagonalization with overlap
     ethr =  8.29E-05,  avg # of iterations =  1.9

     negative rho (up, down):  4.019E-04 0.000E+00

     total cpu time spent up to now is      511.9 secs

     total energy              =  -12616.36339707 Ry
     estimated scf accuracy    <       0.19638301 Ry

     iteration # 12     ecut=    70.00 Ry     beta= 0.20
     Davidson diagonalization with overlap
     ethr =  2.45E-05,  avg # of iterations = 12.9

     negative rho (up, down):  2.808E-04 0.000E+00

     total cpu time spent up to now is      569.1 secs

     total energy              =  -12616.35666568 Ry
     estimated scf accuracy    <       0.57974739 Ry

     iteration # 13     ecut=    70.00 Ry     beta= 0.20
     Davidson diagonalization with overlap
     ethr =  2.45E-05,  avg # of iterations =  1.0

     negative rho (up, down):  2.479E-04 0.000E+00

     total cpu time spent up to now is      604.2 secs

     total energy              =  -12616.36714504 Ry
     estimated scf accuracy    <       0.11613413 Ry

     iteration # 14     ecut=    70.00 Ry     beta= 0.20
     Davidson diagonalization with overlap
     ethr =  1.45E-05,  avg # of iterations =  2.4

     negative rho (up, down):  2.181E-04 0.000E+00

     total cpu time spent up to now is      642.2 secs

     total energy              =  -12616.36798282 Ry
     estimated scf accuracy    <       0.04303305 Ry

     iteration # 15     ecut=    70.00 Ry     beta= 0.20
     Davidson diagonalization with overlap
     ethr =  5.38E-06,  avg # of iterations =  3.8

     negative rho (up, down):  2.015E-04 0.000E+00

     total cpu time spent up to now is      686.1 secs

     total energy              =  -12616.36715128 Ry
     estimated scf accuracy    <       0.15466744 Ry

     iteration # 16     ecut=    70.00 Ry     beta= 0.20
     Davidson diagonalization with overlap
     ethr =  5.38E-06,  avg # of iterations =  1.1

     negative rho (up, down):  1.984E-04 0.000E+00

     total cpu time spent up to now is      722.5 secs

     total energy              =  -12616.36871334 Ry
     estimated scf accuracy    <       0.03416301 Ry

     iteration # 17     ecut=    70.00 Ry     beta= 0.20
     Davidson diagonalization with overlap
     ethr =  4.27E-06,  avg # of iterations =  1.9

     negative rho (up, down):  2.018E-04 0.000E+00

     total cpu time spent up to now is      762.2 secs

     total energy              =  -12616.36829572 Ry
     estimated scf accuracy    <       0.07189962 Ry

     iteration # 18     ecut=    70.00 Ry     beta= 0.20
     Davidson diagonalization with overlap
     ethr =  4.27E-06,  avg # of iterations =  1.0

     negative rho (up, down):  2.033E-04 0.000E+00

     total cpu time spent up to now is      797.3 secs

     total energy              =  -12616.36974802 Ry
     estimated scf accuracy    <       0.04066457 Ry

     iteration # 19     ecut=    70.00 Ry     beta= 0.20
     Davidson diagonalization with overlap
     ethr =  4.27E-06,  avg # of iterations =  1.0

     negative rho (up, down):  2.045E-04 0.000E+00

     total cpu time spent up to now is      832.5 secs

     total energy              =  -12616.37021077 Ry
     estimated scf accuracy    <       0.01759652 Ry

     iteration # 20     ecut=    70.00 Ry     beta= 0.20
     Davidson diagonalization with overlap
     ethr =  2.20E-06,  avg # of iterations =  1.2

     negative rho (up, down):  2.066E-04 0.000E+00

     total cpu time spent up to now is      869.6 secs

     total energy              =  -12616.37027171 Ry
     estimated scf accuracy    <       0.01600370 Ry

     iteration # 21     ecut=    70.00 Ry     beta= 0.20
     Davidson diagonalization with overlap
     ethr =  2.00E-06,  avg # of iterations =  1.0

     negative rho (up, down):  2.100E-04 0.000E+00

     total cpu time spent up to now is      904.8 secs

     total energy              =  -12616.37065017 Ry
     estimated scf accuracy    <       0.00438148 Ry

     iteration # 22     ecut=    70.00 Ry     beta= 0.20
     Davidson diagonalization with overlap
     ethr =  5.48E-07,  avg # of iterations =  1.4

     negative rho (up, down):  2.102E-04 0.000E+00

     total cpu time spent up to now is      942.7 secs

     total energy              =  -12616.37048578 Ry
     estimated scf accuracy    <       0.01457227 Ry

     iteration # 23     ecut=    70.00 Ry     beta= 0.20
     Davidson diagonalization with overlap
     ethr =  5.48E-07,  avg # of iterations =  1.3

     negative rho (up, down):  2.119E-04 0.000E+00

     total cpu time spent up to now is      981.0 secs

     total energy              =  -12616.37080774 Ry
     estimated scf accuracy    <       0.00383671 Ry

     iteration # 24     ecut=    70.00 Ry     beta= 0.20
     Davidson diagonalization with overlap
     ethr =  4.80E-07,  avg # of iterations =  1.1

     negative rho (up, down):  2.129E-04 0.000E+00

     total cpu time spent up to now is     1017.3 secs

     total energy              =  -12616.37084591 Ry
     estimated scf accuracy    <       0.00351456 Ry

     iteration # 25     ecut=    70.00 Ry     beta= 0.20
     Davidson diagonalization with overlap
     ethr =  4.39E-07,  avg # of iterations =  1.0

     negative rho (up, down):  2.137E-04 0.000E+00

     total cpu time spent up to now is     1052.4 secs

     total energy              =  -12616.37074700 Ry
     estimated scf accuracy    <       0.00985426 Ry

     iteration # 26     ecut=    70.00 Ry     beta= 0.20
     Davidson diagonalization with overlap
     ethr =  4.39E-07,  avg # of iterations =  1.0

     negative rho (up, down):  2.139E-04 0.000E+00

     total cpu time spent up to now is     1087.4 secs

     total energy              =  -12616.37090408 Ry
     estimated scf accuracy    <       0.00308736 Ry

     iteration # 27     ecut=    70.00 Ry     beta= 0.20
     Davidson diagonalization with overlap
     ethr =  3.86E-07,  avg # of iterations =  1.0

     negative rho (up, down):  2.145E-04 0.000E+00

     total cpu time spent up to now is     1122.5 secs

     total energy              =  -12616.37089026 Ry
     estimated scf accuracy    <       0.00352764 Ry

     iteration # 28     ecut=    70.00 Ry     beta= 0.20
     Davidson diagonalization with overlap
     ethr =  3.86E-07,  avg # of iterations =  1.0

     negative rho (up, down):  2.151E-04 0.000E+00

     total cpu time spent up to now is     1157.5 secs

     total energy              =  -12616.37091244 Ry
     estimated scf accuracy    <       0.00350534 Ry

     iteration # 29     ecut=    70.00 Ry     beta= 0.20
     Davidson diagonalization with overlap
     ethr =  3.86E-07,  avg # of iterations =  1.0

     negative rho (up, down):  2.153E-04 0.000E+00

     total cpu time spent up to now is     1192.6 secs

     total energy              =  -12616.37097409 Ry
     estimated scf accuracy    <       0.00116072 Ry

     iteration # 30     ecut=    70.00 Ry     beta= 0.20
     Davidson diagonalization with overlap
     ethr =  1.45E-07,  avg # of iterations =  1.0

     negative rho (up, down):  2.157E-04 0.000E+00

     total cpu time spent up to now is     1227.6 secs

     total energy              =  -12616.37097630 Ry
     estimated scf accuracy    <       0.00078875 Ry

     iteration # 31     ecut=    70.00 Ry     beta= 0.20
     Davidson diagonalization with overlap
     ethr =  9.86E-08,  avg # of iterations =  1.0

     negative rho (up, down):  2.149E-04 0.000E+00

     total cpu time spent up to now is     1262.8 secs

     total energy              =  -12616.37101315 Ry
     estimated scf accuracy    <       0.00042798 Ry

     iteration # 32     ecut=    70.00 Ry     beta= 0.20
     Davidson diagonalization with overlap
     ethr =  5.35E-08,  avg # of iterations =  1.0

     negative rho (up, down):  2.155E-04 0.000E+00

     total cpu time spent up to now is     1297.8 secs

     total energy              =  -12616.37099380 Ry
     estimated scf accuracy    <       0.00069982 Ry

     iteration # 33     ecut=    70.00 Ry     beta= 0.20
     Davidson diagonalization with overlap
     ethr =  5.35E-08,  avg # of iterations =  1.0

     negative rho (up, down):  2.154E-04 0.000E+00

     total cpu time spent up to now is     1332.9 secs

     total energy              =  -12616.37101171 Ry
     estimated scf accuracy    <       0.00045799 Ry

     iteration # 34     ecut=    70.00 Ry     beta= 0.20
     Davidson diagonalization with overlap
     ethr =  5.35E-08,  avg # of iterations =  1.0

     negative rho (up, down):  2.153E-04 0.000E+00

     total cpu time spent up to now is     1368.0 secs

     total energy              =  -12616.37102159 Ry
     estimated scf accuracy    <       0.00030261 Ry

     iteration # 35     ecut=    70.00 Ry     beta= 0.20
     Davidson diagonalization with overlap
     ethr =  3.78E-08,  avg # of iterations =  1.0

     negative rho (up, down):  2.154E-04 0.000E+00

     total cpu time spent up to now is     1403.1 secs

     total energy              =  -12616.37100954 Ry
     estimated scf accuracy    <       0.00077111 Ry

     iteration # 36     ecut=    70.00 Ry     beta= 0.20
     Davidson diagonalization with overlap
     ethr =  3.78E-08,  avg # of iterations =  1.3

     negative rho (up, down):  2.153E-04 0.000E+00

     total cpu time spent up to now is     1441.4 secs

     total energy              =  -12616.37101465 Ry
     estimated scf accuracy    <       0.00099419 Ry

     iteration # 37     ecut=    70.00 Ry     beta= 0.20
     Davidson diagonalization with overlap
     ethr =  3.78E-08,  avg # of iterations =  1.0

     negative rho (up, down):  2.153E-04 0.000E+00

     total cpu time spent up to now is     1476.5 secs

     total energy              =  -12616.37102844 Ry
     estimated scf accuracy    <       0.00042549 Ry

     iteration # 38     ecut=    70.00 Ry     beta= 0.20
     Davidson diagonalization with overlap
     ethr =  3.78E-08,  avg # of iterations =  1.0

     negative rho (up, down):  2.154E-04 0.000E+00

     total cpu time spent up to now is     1511.7 secs

     total energy              =  -12616.37102213 Ry
     estimated scf accuracy    <       0.00046141 Ry

     iteration # 39     ecut=    70.00 Ry     beta= 0.20
     Davidson diagonalization with overlap
     ethr =  3.78E-08,  avg # of iterations =  1.0

     negative rho (up, down):  2.154E-04 0.000E+00

     total cpu time spent up to now is     1546.9 secs

     total energy              =  -12616.37103051 Ry
     estimated scf accuracy    <       0.00038463 Ry

     iteration # 40     ecut=    70.00 Ry     beta= 0.20
     Davidson diagonalization with overlap
     ethr =  3.78E-08,  avg # of iterations =  1.0

     negative rho (up, down):  2.155E-04 0.000E+00

     total cpu time spent up to now is     1582.0 secs

     total energy              =  -12616.37103047 Ry
     estimated scf accuracy    <       0.00018034 Ry

     iteration # 41     ecut=    70.00 Ry     beta= 0.20
     Davidson diagonalization with overlap
     ethr =  2.25E-08,  avg # of iterations =  1.0

     negative rho (up, down):  2.155E-04 0.000E+00

     total cpu time spent up to now is     1617.2 secs

     total energy              =  -12616.37103668 Ry
     estimated scf accuracy    <       0.00021032 Ry

     iteration # 42     ecut=    70.00 Ry     beta= 0.20
     Davidson diagonalization with overlap
     ethr =  2.25E-08,  avg # of iterations =  1.0

     negative rho (up, down):  2.155E-04 0.000E+00

     total cpu time spent up to now is     1652.3 secs

     total energy              =  -12616.37103840 Ry
     estimated scf accuracy    <       0.00008848 Ry

     iteration # 43     ecut=    70.00 Ry     beta= 0.20
     Davidson diagonalization with overlap
     ethr =  1.11E-08,  avg # of iterations =  1.0

     negative rho (up, down):  2.155E-04 0.000E+00

     total cpu time spent up to now is     1687.4 secs

     total energy              =  -12616.37103852 Ry
     estimated scf accuracy    <       0.00010771 Ry

     iteration # 44     ecut=    70.00 Ry     beta= 0.20
     Davidson diagonalization with overlap
     ethr =  1.11E-08,  avg # of iterations =  1.0

     negative rho (up, down):  2.155E-04 0.000E+00

     total cpu time spent up to now is     1722.5 secs

     total energy              =  -12616.37104150 Ry
     estimated scf accuracy    <       0.00004113 Ry

     iteration # 45     ecut=    70.00 Ry     beta= 0.20
     Davidson diagonalization with overlap
     ethr =  5.14E-09,  avg # of iterations =  1.0

     negative rho (up, down):  2.156E-04 0.000E+00

     total cpu time spent up to now is     1757.5 secs

     total energy              =  -12616.37104237 Ry
     estimated scf accuracy    <       0.00007208 Ry

     iteration # 46     ecut=    70.00 Ry     beta= 0.20
     Davidson diagonalization with overlap
     ethr =  5.14E-09,  avg # of iterations =  1.0

     negative rho (up, down):  2.156E-04 0.000E+00

     total cpu time spent up to now is     1792.8 secs

     total energy              =  -12616.37104102 Ry
     estimated scf accuracy    <       0.00011989 Ry

     iteration # 47     ecut=    70.00 Ry     beta= 0.20
     Davidson diagonalization with overlap
     ethr =  5.14E-09,  avg # of iterations =  1.0

     negative rho (up, down):  2.157E-04 0.000E+00

     total cpu time spent up to now is     1827.7 secs

     total energy              =  -12616.37104391 Ry
     estimated scf accuracy    <       0.00003413 Ry

     iteration # 48     ecut=    70.00 Ry     beta= 0.20
     Davidson diagonalization with overlap
     ethr =  4.27E-09,  avg # of iterations =  1.0

     negative rho (up, down):  2.156E-04 0.000E+00

     total cpu time spent up to now is     1862.9 secs

     total energy              =  -12616.37104305 Ry
     estimated scf accuracy    <       0.00002587 Ry

     iteration # 49     ecut=    70.00 Ry     beta= 0.20
     Davidson diagonalization with overlap
     ethr =  3.23E-09,  avg # of iterations =  1.0

     negative rho (up, down):  2.157E-04 0.000E+00

     total cpu time spent up to now is     1897.9 secs

     total energy              =  -12616.37104311 Ry
     estimated scf accuracy    <       0.00010437 Ry

     iteration # 50     ecut=    70.00 Ry     beta= 0.20
     Davidson diagonalization with overlap
     ethr =  3.23E-09,  avg # of iterations =  1.0

     negative rho (up, down):  2.159E-04 0.000E+00

     total cpu time spent up to now is     1932.9 secs

     total energy              =  -12616.37104443 Ry
     estimated scf accuracy    <       0.00003825 Ry

     iteration # 51     ecut=    70.00 Ry     beta= 0.20
     Davidson diagonalization with overlap
     ethr =  3.23E-09,  avg # of iterations =  1.0

     negative rho (up, down):  2.157E-04 0.000E+00

     total cpu time spent up to now is     1967.9 secs

     total energy              =  -12616.37104359 Ry
     estimated scf accuracy    <       0.00004829 Ry

     iteration # 52     ecut=    70.00 Ry     beta= 0.20
     Davidson diagonalization with overlap
     ethr =  3.23E-09,  avg # of iterations =  1.0

     negative rho (up, down):  2.158E-04 0.000E+00

     total cpu time spent up to now is     2003.0 secs

     total energy              =  -12616.37104530 Ry
     estimated scf accuracy    <       0.00001362 Ry

     iteration # 53     ecut=    70.00 Ry     beta= 0.20
     Davidson diagonalization with overlap
     ethr =  1.70E-09,  avg # of iterations =  1.0

     negative rho (up, down):  2.158E-04 0.000E+00

     total cpu time spent up to now is     2038.0 secs

     total energy              =  -12616.37104486 Ry
     estimated scf accuracy    <       0.00001832 Ry

     iteration # 54     ecut=    70.00 Ry     beta= 0.20
     Davidson diagonalization with overlap
     ethr =  1.70E-09,  avg # of iterations =  1.0

     negative rho (up, down):  2.158E-04 0.000E+00

     total cpu time spent up to now is     2073.2 secs

     total energy              =  -12616.37104524 Ry
     estimated scf accuracy    <       0.00001338 Ry

     iteration # 55     ecut=    70.00 Ry     beta= 0.20
     Davidson diagonalization with overlap
     ethr =  1.67E-09,  avg # of iterations =  1.0

     negative rho (up, down):  2.159E-04 0.000E+00

     total cpu time spent up to now is     2108.2 secs

     total energy              =  -12616.37104571 Ry
     estimated scf accuracy    <       0.00001700 Ry

     iteration # 56     ecut=    70.00 Ry     beta= 0.20
     Davidson diagonalization with overlap
     ethr =  1.67E-09,  avg # of iterations =  1.0

     negative rho (up, down):  2.159E-04 0.000E+00

     total cpu time spent up to now is     2143.3 secs

     total energy              =  -12616.37104545 Ry
     estimated scf accuracy    <       0.00000894 Ry

     iteration # 57     ecut=    70.00 Ry     beta= 0.20
     Davidson diagonalization with overlap
     ethr =  1.12E-09,  avg # of iterations =  1.0

     negative rho (up, down):  2.159E-04 0.000E+00

     total cpu time spent up to now is     2178.3 secs

     total energy              =  -12616.37104572 Ry
     estimated scf accuracy    <       0.00000766 Ry

     iteration # 58     ecut=    70.00 Ry     beta= 0.20
     Davidson diagonalization with overlap
     ethr =  9.58E-10,  avg # of iterations =  1.0

     negative rho (up, down):  2.159E-04 0.000E+00

     total cpu time spent up to now is     2213.4 secs

     total energy              =  -12616.37104587 Ry
     estimated scf accuracy    <       0.00000308 Ry

     iteration # 59     ecut=    70.00 Ry     beta= 0.20
     Davidson diagonalization with overlap
     ethr =  3.85E-10,  avg # of iterations =  1.1

     negative rho (up, down):  2.160E-04 0.000E+00

     total cpu time spent up to now is     2249.5 secs

     total energy              =  -12616.37104580 Ry
     estimated scf accuracy    <       0.00002103 Ry

     iteration # 60     ecut=    70.00 Ry     beta= 0.20
     Davidson diagonalization with overlap
     ethr =  3.85E-10,  avg # of iterations =  1.0

     negative rho (up, down):  2.160E-04 0.000E+00

     total cpu time spent up to now is     2284.7 secs

     total energy              =  -12616.37104605 Ry
     estimated scf accuracy    <       0.00000405 Ry

     iteration # 61     ecut=    70.00 Ry     beta= 0.20
     Davidson diagonalization with overlap
     ethr =  3.85E-10,  avg # of iterations =  1.0

     negative rho (up, down):  2.160E-04 0.000E+00

     total cpu time spent up to now is     2319.7 secs

     total energy              =  -12616.37104599 Ry
     estimated scf accuracy    <       0.00000091 Ry

     iteration # 62     ecut=    70.00 Ry     beta= 0.20
     Davidson diagonalization with overlap
     ethr =  1.13E-10,  avg # of iterations =  2.9

     negative rho (up, down):  2.160E-04 0.000E+00

     total cpu time spent up to now is     2361.4 secs

     total energy              =  -12616.37104600 Ry
     estimated scf accuracy    <       0.00000706 Ry

     iteration # 63     ecut=    70.00 Ry     beta= 0.20
     Davidson diagonalization with overlap
     ethr =  1.13E-10,  avg # of iterations =  1.3

     negative rho (up, down):  2.161E-04 0.000E+00

     total cpu time spent up to now is     2399.9 secs

     total energy              =  -12616.37104614 Ry
     estimated scf accuracy    <       0.00000200 Ry

     iteration # 64     ecut=    70.00 Ry     beta= 0.20
     Davidson diagonalization with overlap
     ethr =  1.13E-10,  avg # of iterations =  1.2

     negative rho (up, down):  2.161E-04 0.000E+00

     total cpu time spent up to now is     2437.3 secs

     total energy              =  -12616.37104616 Ry
     estimated scf accuracy    <       0.00000153 Ry

     iteration # 65     ecut=    70.00 Ry     beta= 0.20
     Davidson diagonalization with overlap
     ethr =  1.13E-10,  avg # of iterations =  1.0

     negative rho (up, down):  2.161E-04 0.000E+00

     total cpu time spent up to now is     2472.4 secs

     total energy              =  -12616.37104618 Ry
     estimated scf accuracy    <       0.00000118 Ry

     iteration # 66     ecut=    70.00 Ry     beta= 0.20
     Davidson diagonalization with overlap
     ethr =  1.13E-10,  avg # of iterations =  1.0

     negative rho (up, down):  2.161E-04 0.000E+00

     total cpu time spent up to now is     2507.4 secs

     total energy              =  -12616.37104619 Ry
     estimated scf accuracy    <       0.00000020 Ry

     iteration # 67     ecut=    70.00 Ry     beta= 0.20
     Davidson diagonalization with overlap
     ethr =  2.45E-11,  avg # of iterations =  1.7

     negative rho (up, down):  2.161E-04 0.000E+00

     total cpu time spent up to now is     2546.7 secs

     total energy              =  -12616.37104617 Ry
     estimated scf accuracy    <       0.00000104 Ry

     iteration # 68     ecut=    70.00 Ry     beta= 0.20
     Davidson diagonalization with overlap
     ethr =  2.45E-11,  avg # of iterations =  1.7

     negative rho (up, down):  2.161E-04 0.000E+00

     total cpu time spent up to now is     2585.8 secs

     total energy              =  -12616.37104620 Ry
     estimated scf accuracy    <       0.00000041 Ry

     iteration # 69     ecut=    70.00 Ry     beta= 0.20
     Davidson diagonalization with overlap
     ethr =  2.45E-11,  avg # of iterations =  1.0

     negative rho (up, down):  2.161E-04 0.000E+00

     total cpu time spent up to now is     2621.0 secs

     total energy              =  -12616.37104620 Ry
     estimated scf accuracy    <       0.00000027 Ry

     iteration # 70     ecut=    70.00 Ry     beta= 0.20
     Davidson diagonalization with overlap
     ethr =  2.45E-11,  avg # of iterations =  1.0

     negative rho (up, down):  2.161E-04 0.000E+00

     total cpu time spent up to now is     2656.1 secs

     total energy              =  -12616.37104621 Ry
     estimated scf accuracy    <       0.00000006 Ry

     iteration # 71     ecut=    70.00 Ry     beta= 0.20
     Davidson diagonalization with overlap
     ethr =  7.04E-12,  avg # of iterations =  1.0

     negative rho (up, down):  2.161E-04 0.000E+00

     total cpu time spent up to now is     2691.3 secs

     total energy              =  -12616.37104621 Ry
     estimated scf accuracy    <       0.00000002 Ry

     iteration # 72     ecut=    70.00 Ry     beta= 0.20
     Davidson diagonalization with overlap
     ethr =  2.07E-12,  avg # of iterations =  2.4

     negative rho (up, down):  2.161E-04 0.000E+00

     total cpu time spent up to now is     2731.2 secs

     total energy              =  -12616.37104621 Ry
     estimated scf accuracy    <       0.00000004 Ry

     iteration # 73     ecut=    70.00 Ry     beta= 0.20
     Davidson diagonalization with overlap
     ethr =  2.07E-12,  avg # of iterations =  1.2

     negative rho (up, down):  2.161E-04 0.000E+00

     total cpu time spent up to now is     2768.5 secs

     total energy              =  -12616.37104621 Ry
     estimated scf accuracy    <       0.00000005 Ry

     iteration # 74     ecut=    70.00 Ry     beta= 0.20
     Davidson diagonalization with overlap
     ethr =  2.07E-12,  avg # of iterations =  1.0

     negative rho (up, down):  2.161E-04 0.000E+00

     total cpu time spent up to now is     2803.6 secs

     total energy              =  -12616.37104621 Ry
     estimated scf accuracy    <       0.00000001 Ry

     iteration # 75     ecut=    70.00 Ry     beta= 0.20
     Davidson diagonalization with overlap
     ethr =  1.25E-12,  avg # of iterations =  1.0

     negative rho (up, down):  2.161E-04 0.000E+00

     total cpu time spent up to now is     2838.6 secs

     total energy              =  -12616.37104621 Ry
     estimated scf accuracy    <       0.00000002 Ry

     iteration # 76     ecut=    70.00 Ry     beta= 0.20
     Davidson diagonalization with overlap
     ethr =  1.25E-12,  avg # of iterations =  1.7

     negative rho (up, down):  2.161E-04 0.000E+00

     total cpu time spent up to now is     2877.6 secs

     total energy              =  -12616.37104621 Ry
     estimated scf accuracy    <       0.00000014 Ry

     iteration # 77     ecut=    70.00 Ry     beta= 0.20
     Davidson diagonalization with overlap
     ethr =  1.25E-12,  avg # of iterations =  1.0

     negative rho (up, down):  2.161E-04 0.000E+00

     total cpu time spent up to now is     2912.7 secs

     End of self-consistent calculation

          k = 0.0000 0.0000 0.0000 (108303 PWs)   bands (ev):

   -67.0000 -66.9602 -66.9594 -66.9591 -66.9519 -66.9508 -66.9502 -66.9481
   -66.9257 -66.9257 -66.9251 -66.9224 -66.9212 -66.9187 -66.9169 -66.9163
   -66.9151 -66.9147 -66.9138 -66.9045 -66.9018 -66.9014 -66.8978 -66.8949
   -66.7478 -66.7189 -66.7183 -66.7181 -66.7116 -66.7114 -66.7114 -66.6951
   -66.6947 -66.6943 -66.6884 -66.6881 -66.6599 -66.6337 -66.6204 -66.6202
   -66.6083 -66.5931 -66.5877 -66.5822 -66.5769 -66.5767 -66.5737 -66.5656
   -38.8042 -38.7776 -38.7757 -38.7752 -38.6749 -38.6747 -38.6732 -38.6355
   -38.6348 -38.6199 -38.6190 -38.6179 -38.5947 -38.5645 -38.5632 -38.5603
   -38.5415 -38.5405 -38.5399 -38.5144 -38.5110 -38.5088 -38.4771 -38.4764
   -38.4721 -38.4718 -38.4702 -38.4634 -38.3892 -38.3795 -38.3718 -38.3715
   -38.3705 -38.3672 -38.3665 -38.3654 -38.3639 -38.3635 -38.3273 -38.3269
   -38.3263 -38.3105 -38.3102 -38.3087 -38.2880 -38.2661 -38.2655 -38.2646
   -38.2635 -38.2621 -38.2620 -38.2616 -38.2614 -38.2480 -38.2438 -38.2437
   -38.2383 -38.2372 -38.2324 -38.2317 -38.2304 -38.2301 -38.2299 -38.2239
   -38.2160 -38.2151 -38.2135 -38.2092 -38.2038 -38.2009 -38.2002 -38.1586
   -38.1515 -38.1484 -38.1484 -38.1447 -38.1422 -38.1417 -38.1374 -38.1364
   -38.1224 -38.1144 -38.1132 -38.1115 -38.0965 -38.0959 -38.0942 -38.0838
   -38.0796 -38.0788 -38.0678 -38.0557 -38.0542 -38.0492 -38.0491 -38.0464
   -38.0403 -38.0354 -38.0312 -38.0291 -38.0274 -38.0041 -38.0037 -38.0033
   -37.9698 -37.9692 -37.9624 -37.9619 -37.9616 -37.9516 -37.9502 -37.9439
   -37.9439 -37.9421 -37.9411 -37.9279 -37.9256 -37.9215 -37.9170 -37.9093
   -37.9087 -37.9002 -37.8998 -37.8986 -37.8663 -37.8661 -37.8660 -37.8647
   -37.8646 -37.8643 -37.8369 -37.8362 -37.8358 -37.8171 -37.8079 -37.8066
   -37.7140 -37.6979 -37.6945 -37.6803 -37.6727 -37.6707 -37.6551 -37.6534
   -12.5019 -12.0335 -11.7982 -11.7981 -11.7973 -11.6581 -11.6512 -11.6464
   -11.6285 -11.6263 -11.6231 -11.3476 -11.3441 -11.3396 -11.2671 -11.2365
   -11.2338 -11.2309 -11.0047 -10.9811  -8.9842  -8.7116  -8.7111  -8.7109
    -8.6536  -3.0047  -3.0024  -3.0011  -2.7926  -2.7605  -2.7598  -2.5661
    -2.5652  -2.5647  -2.5535  -2.5395  -2.5393  -2.4769  -2.4212  -2.4100
    -2.4063  -2.3261  -2.3216  -2.3189  -2.2391  -2.2386  -1.7873  -1.7723
    -1.7704  -1.6408  -1.6350  -1.5802  -1.5588  -1.5572  -1.4937  -1.4870
    -1.4264  -1.4261  -1.4149  -1.3923  -1.3886  -1.3379  -1.3351  -1.3067
    -1.2936  -1.2803  -1.2786  -1.2273  -1.2087  -1.2070  -1.0875  -1.0858
    -0.9852  -0.9190  -0.9099  -0.9060  -0.9002  -0.8954  -0.8560  -0.8278
    -0.8242  -0.8216  -0.6861  -0.6770  -0.6697  -0.4358  -0.4334  -0.4329
     0.6589   1.2248   1.2252   1.2255   1.4677   1.4678   1.4681   1.5450
     1.5615   1.5615   1.5837   1.5838   1.5844   1.6047   1.6047   1.6051
     1.7759   1.7791   1.7803   2.0663   2.0672   2.0685   2.1930   2.1953
     2.1964   2.2249   2.3414   2.3486   2.3495   2.4404   2.4408   2.4432
     2.4534   2.4542   2.4582   2.5143   2.5172   2.5174   2.5348   2.6975
     2.6977   2.7961   2.8008   2.8036   3.1540   3.1550   3.1957   3.2873
     3.2874   3.3491   3.3518   3.3528   3.3659   3.3683   3.3721   3.4819
     3.4828   3.4972   3.5141   3.5558   3.5667   3.6426   3.6711   3.6742
     3.6774   3.6946   3.6977   3.7187   3.7295   3.7310   3.7312   3.8283
     3.8312   3.8343   3.9900   3.9950   4.0354   4.1365   4.1443   4.1490
     4.1601   4.1623   4.2823   4.3069   4.3236   4.3253   4.3507   4.3809
     4.3908   4.4167   4.4216   4.4266   4.4351   4.4876   4.5015   4.5114
     4.5504   4.5513   4.6471   4.6989   4.7077   4.7195   4.7366   4.7860
     4.7887   4.8227   4.8397   4.8446   4.8919   4.8942   4.8999   4.9547
     4.9608   4.9828   5.0186   5.0188   5.0293   5.1310   5.1421   5.1645
     5.2412   5.2769   5.3121   5.3939   5.3945   5.3965   5.5043   5.5063
     5.5488   5.5586   5.5673   5.5699   5.5702   5.6019   5.6978   5.6998
     5.7030   5.7089   5.7172   5.7209   5.7303   5.7306   5.7646   5.7659
     5.8184   5.8432   5.8632   5.8681   5.8689   5.8705   5.8733   5.8971
     5.9137   5.9308   5.9928   5.9968   5.9984   6.0107   6.0140   6.0169
     6.0192   6.0439   6.0710   6.0712   6.0722   6.1137   6.1244   6.1612
     6.2067   6.2089   6.2192   6.2205   6.2241   6.2663   6.2664   6.2710
     6.2750   6.2990   6.3178   6.3209   6.3228   6.3584   6.3638   6.4372
     6.5338   6.5745   6.5754   6.5770   6.6313   6.6342   6.6545   6.6747
     6.6770   6.7145   6.7207   6.7214   6.7268   6.7345   6.7752   6.8342

          k = 0.0000 0.2887 0.0000 (108355 PWs)   bands (ev):

   -66.9965 -66.9725 -66.9635 -66.9624 -66.9462 -66.9457 -66.9441 -66.9385
   -66.9298 -66.9283 -66.9274 -66.9247 -66.9240 -66.9209 -66.9175 -66.9168
   -66.9141 -66.9113 -66.9086 -66.9053 -66.9027 -66.9009 -66.8984 -66.8958
   -66.7452 -66.7274 -66.7212 -66.7204 -66.7077 -66.7072 -66.7034 -66.6968
   -66.6960 -66.6938 -66.6899 -66.6892 -66.6593 -66.6333 -66.6232 -66.6203
   -66.6079 -66.5912 -66.5866 -66.5815 -66.5779 -66.5764 -66.5739 -66.5667
   -38.8009 -38.7811 -38.7724 -38.7716 -38.6705 -38.6693 -38.6678 -38.6434
   -38.6334 -38.6265 -38.6253 -38.6227 -38.5963 -38.5809 -38.5674 -38.5646
   -38.5360 -38.5355 -38.5254 -38.5159 -38.5130 -38.5097 -38.5046 -38.4820
   -38.4663 -38.4656 -38.4630 -38.4423 -38.3824 -38.3810 -38.3767 -38.3727
   -38.3691 -38.3634 -38.3625 -38.3611 -38.3553 -38.3486 -38.3321 -38.3282
   -38.3279 -38.3187 -38.3134 -38.3113 -38.2885 -38.2813 -38.2694 -38.2669
   -38.2667 -38.2653 -38.2652 -38.2649 -38.2595 -38.2532 -38.2518 -38.2483
   -38.2456 -38.2447 -38.2384 -38.2332 -38.2323 -38.2267 -38.2191 -38.2148
   -38.2104 -38.2094 -38.2061 -38.1979 -38.1944 -38.1913 -38.1903 -38.1616
   -38.1582 -38.1566 -38.1526 -38.1515 -38.1455 -38.1411 -38.1406 -38.1289
   -38.1247 -38.1209 -38.1184 -38.1054 -38.1005 -38.0974 -38.0848 -38.0840
   -38.0821 -38.0726 -38.0698 -38.0577 -38.0549 -38.0502 -38.0469 -38.0390
   -38.0385 -38.0307 -38.0276 -38.0246 -38.0239 -38.0087 -38.0083 -38.0061
   -37.9745 -37.9695 -37.9684 -37.9598 -37.9593 -37.9564 -37.9471 -37.9433
   -37.9414 -37.9391 -37.9375 -37.9262 -37.9239 -37.9190 -37.9170 -37.9123
   -37.9092 -37.9027 -37.9013 -37.8982 -37.8723 -37.8686 -37.8675 -37.8603
   -37.8590 -37.8562 -37.8464 -37.8384 -37.8353 -37.8161 -37.8089 -37.8074
   -37.7130 -37.6949 -37.6921 -37.6771 -37.6720 -37.6716 -37.6615 -37.6565
   -12.4383 -12.0110 -11.9909 -11.8551 -11.8524 -11.7238 -11.6409 -11.6319
   -11.5633 -11.5578 -11.4808 -11.3394 -11.3309 -11.2863 -11.2689 -11.2635
   -11.2560 -11.2020 -11.0378 -11.0160  -8.9842  -8.7131  -8.7125  -8.7014
    -8.6607  -2.9731  -2.9706  -2.9293  -2.8180  -2.7475  -2.7347  -2.7134
    -2.7085  -2.7056  -2.5911  -2.5880  -2.4412  -2.3980  -2.3604  -2.3514
    -2.3466  -2.2916  -2.2403  -2.2121  -2.2075  -2.1620  -1.9741  -1.7937
    -1.7787  -1.7513  -1.6774  -1.6435  -1.5830  -1.5581  -1.5113  -1.4782
    -1.4748  -1.4348  -1.4214  -1.4103  -1.3647  -1.3502  -1.3207  -1.3194
    -1.2970  -1.2851  -1.2548  -1.2477  -1.2202  -1.1204  -1.0790  -1.0629
    -1.0168  -0.9517  -0.9047  -0.8933  -0.8862  -0.8372  -0.8341  -0.8270
    -0.8036  -0.7779  -0.7164  -0.6505  -0.6487  -0.5054  -0.4611  -0.4592
     0.7802   1.1871   1.2179   1.2188   1.4573   1.4578   1.4684   1.4698
     1.5363   1.5533   1.5534   1.5723   1.6344   1.6732   1.6754   1.6873
     1.7878   1.7915   1.8358   2.0735   2.0760   2.1190   2.1677   2.1722
     2.2250   2.2782   2.3079   2.3132   2.3354   2.4352   2.4363   2.4529
     2.4631   2.4660   2.5284   2.5554   2.5597   2.5764   2.5999   2.6304
     2.7315   2.8101   2.8119   2.8714   3.0243   3.0778   3.1376   3.2085
     3.2144   3.2428   3.2469   3.2720   3.3732   3.3768   3.4030   3.4071
     3.4109   3.4499   3.5238   3.5924   3.6104   3.6196   3.6483   3.6824
     3.7117   3.7277   3.7370   3.7410   3.7811   3.7924   3.7950   3.8782
     3.9987   4.0077   4.0211   4.0369   4.0542   4.0590   4.0704   4.1551
     4.1857   4.1994   4.2519   4.2668   4.2934   4.3020   4.3176   4.3212
     4.3582   4.3730   4.3874   4.3957   4.4112   4.4897   4.4960   4.5062
     4.5263   4.5823   4.5835   4.6795   4.7058   4.7310   4.7578   4.7803
     4.7920   4.7973   4.8437   4.8678   4.8841   4.9382   4.9497   4.9548
     4.9812   4.9878   5.0121   5.0781   5.0891   5.1470   5.1709   5.1884
     5.2105   5.2584   5.2831   5.3143   5.3315   5.3721   5.3908   5.4643
     5.4757   5.4796   5.4825   5.5265   5.5556   5.5683   5.5812   5.5851
     5.6106   5.6911   5.7075   5.7325   5.7541   5.7594   5.7659   5.7742
     5.7967   5.8185   5.8281   5.8438   5.8676   5.8934   5.8962   5.9012
     5.9155   5.9497   5.9681   5.9761   5.9880   5.9904   6.0238   6.0313
     6.0391   6.0499   6.0562   6.0679   6.0707   6.0806   6.1228   6.1822
     6.2151   6.2213   6.2381   6.2548   6.2612   6.2653   6.2746   6.3085
     6.3202   6.3259   6.3527   6.3790   6.4082   6.4150   6.4566   6.4740
     6.4778   6.4820   6.5458   6.5525   6.5646   6.5780   6.6549   6.6641
     6.6853   6.7033   6.7107   6.7381   6.7501   6.7565   6.8105   6.8224

          k = 0.0000-0.5774 0.0000 (108310 PWs)   bands (ev):

   -66.9869 -66.9864 -66.9657 -66.9645 -66.9398 -66.9388 -66.9384 -66.9369
   -66.9336 -66.9327 -66.9263 -66.9254 -66.9254 -66.9229 -66.9206 -66.9204
   -66.9106 -66.9075 -66.9066 -66.9062 -66.9038 -66.9000 -66.8992 -66.8972
   -66.7381 -66.7377 -66.7226 -66.7218 -66.7025 -66.7022 -66.7006 -66.6995
   -66.6954 -66.6945 -66.6918 -66.6914 -66.6586 -66.6327 -66.6260 -66.6207
   -66.6075 -66.5891 -66.5858 -66.5805 -66.5796 -66.5756 -66.5740 -66.5680
   -38.7926 -38.7906 -38.7683 -38.7672 -38.6632 -38.6618 -38.6596 -38.6572
   -38.6336 -38.6329 -38.6296 -38.6283 -38.5951 -38.5943 -38.5697 -38.5668
   -38.5324 -38.5305 -38.5231 -38.5222 -38.5178 -38.5158 -38.4961 -38.4958
   -38.4592 -38.4579 -38.4462 -38.4454 -38.3919 -38.3900 -38.3688 -38.3684
   -38.3628 -38.3622 -38.3523 -38.3520 -38.3420 -38.3412 -38.3305 -38.3296
   -38.3244 -38.3240 -38.3171 -38.3140 -38.3025 -38.3014 -38.2717 -38.2697
   -38.2695 -38.2685 -38.2647 -38.2641 -38.2633 -38.2607 -38.2554 -38.2509
   -38.2465 -38.2455 -38.2440 -38.2358 -38.2348 -38.2346 -38.2135 -38.2114
   -38.1980 -38.1948 -38.1920 -38.1851 -38.1847 -38.1814 -38.1808 -38.1794
   -38.1666 -38.1653 -38.1646 -38.1614 -38.1380 -38.1351 -38.1335 -38.1327
   -38.1295 -38.1294 -38.1154 -38.1137 -38.1030 -38.0984 -38.0832 -38.0790
   -38.0780 -38.0751 -38.0623 -38.0568 -38.0563 -38.0515 -38.0458 -38.0415
   -38.0379 -38.0357 -38.0243 -38.0208 -38.0160 -38.0137 -37.9956 -37.9943
   -37.9847 -37.9819 -37.9687 -37.9678 -37.9580 -37.9573 -37.9445 -37.9397
   -37.9386 -37.9352 -37.9333 -37.9328 -37.9217 -37.9163 -37.9149 -37.9116
   -37.9054 -37.9050 -37.9039 -37.9030 -37.8700 -37.8690 -37.8664 -37.8654
   -37.8563 -37.8548 -37.8464 -37.8453 -37.8340 -37.8137 -37.8103 -37.8092
   -37.7119 -37.6896 -37.6825 -37.6817 -37.6742 -37.6707 -37.6697 -37.6584
   -12.2628 -12.2596 -11.8907 -11.8869 -11.8777 -11.8733 -11.6482 -11.6398
   -11.4749 -11.4705 -11.3480 -11.3479 -11.3407 -11.3296 -11.3117 -11.3086
   -11.1315 -11.1265 -11.1087 -11.1086  -8.9842  -8.7147  -8.7141  -8.6800
    -8.6794  -2.9399  -2.9357  -2.8441  -2.8415  -2.7761  -2.7749  -2.7747
    -2.7714  -2.6492  -2.6482  -2.5339  -2.5313  -2.3763  -2.3650  -2.3128
    -2.2986  -2.2633  -2.2480  -2.1279  -2.1245  -2.0424  -2.0381  -1.8592
    -1.8473  -1.7652  -1.7138  -1.6839  -1.6711  -1.5805  -1.5730  -1.5307
    -1.5070  -1.4541  -1.4444  -1.4204  -1.3784  -1.3472  -1.2943  -1.2913
    -1.2628  -1.2577  -1.2484  -1.2443  -1.1314  -1.1209  -1.0515  -1.0507
    -1.0307  -1.0246  -0.9111  -0.8986  -0.8548  -0.8435  -0.8372  -0.8193
    -0.7339  -0.7336  -0.6713  -0.6676  -0.6224  -0.6179  -0.4848  -0.4825
     1.0227   1.0233   1.2058   1.2068   1.4375   1.4387   1.4577   1.4583
     1.5331   1.5336   1.5499   1.5502   1.6926   1.6930   1.7000   1.7074
     1.9263   1.9318   1.9334   1.9371   2.1108   2.1120   2.1438   2.1493
     2.2381   2.2394   2.3715   2.3729   2.3931   2.3960   2.4272   2.4279
     2.4655   2.4681   2.4784   2.4805   2.5822   2.5889   2.7570   2.7589
     2.8092   2.8156   2.8304   2.8357   3.0164   3.0312   3.0470   3.0539
     3.1184   3.1199   3.2100   3.2225   3.3367   3.3428   3.3986   3.4047
     3.4315   3.4350   3.5296   3.5323   3.6191   3.6329   3.6777   3.6783
     3.7429   3.7497   3.8188   3.8259   3.8698   3.8765   3.9143   3.9202
     3.9550   3.9589   3.9909   4.0025   4.0154   4.0231   4.1449   4.1567
     4.1642   4.1686   4.2899   4.2927   4.3242   4.3258   4.3312   4.3596
     4.3690   4.3741   4.3875   4.3962   4.4576   4.4650   4.4812   4.4813
     4.4887   4.4983   4.6177   4.6233   4.6486   4.6623   4.6896   4.6911
     4.7073   4.7099   4.8321   4.8342   4.9920   4.9986   5.0006   5.0006
     5.0058   5.0136   5.0837   5.0912   5.1282   5.1304   5.1461   5.1468
     5.2006   5.2026   5.2745   5.3252   5.3538   5.3551   5.3645   5.3697
     5.4364   5.4502   5.4703   5.5040   5.5316   5.5387   5.5697   5.5702
     5.5921   5.5998   5.6118   5.6831   5.7127   5.7211   5.7518   5.7546
     5.7758   5.7772   5.7973   5.8465   5.8529   5.8558   5.8778   5.8898
     5.9057   5.9094   5.9254   5.9337   5.9865   6.0010   6.0117   6.0168
     6.0478   6.0658   6.0825   6.1351   6.1622   6.1741   6.1743   6.1839
     6.1881   6.1990   6.2067   6.2159   6.2214   6.2263   6.3475   6.3561
     6.3570   6.3578   6.4016   6.4270   6.4412   6.4564   6.4593   6.4595
     6.4728   6.5038   6.5082   6.5245   6.6229   6.6250   6.6317   6.6327
     6.6698   6.6797   6.7194   6.7277   6.8573   6.8664   6.8713   6.8799

          k = 0.2500 0.4330 0.0000 (108308 PWs)   bands (ev):

   -66.9899 -66.9782 -66.9775 -66.9541 -66.9463 -66.9413 -66.9365 -66.9338
   -66.9325 -66.9315 -66.9309 -66.9254 -66.9251 -66.9218 -66.9208 -66.9168
   -66.9137 -66.9086 -66.9059 -66.9051 -66.9030 -66.9012 -66.8996 -66.8966
   -66.7403 -66.7315 -66.7312 -66.7147 -66.7080 -66.7019 -66.6988 -66.6984
   -66.6947 -66.6945 -66.6926 -66.6916 -66.6586 -66.6321 -66.6276 -66.6199
   -66.6069 -66.5900 -66.5847 -66.5809 -66.5792 -66.5761 -66.5748 -66.5674
   -38.7942 -38.7828 -38.7815 -38.7600 -38.6645 -38.6636 -38.6580 -38.6538
   -38.6394 -38.6312 -38.6287 -38.6269 -38.5959 -38.5872 -38.5862 -38.5472
   -38.5410 -38.5293 -38.5285 -38.5234 -38.5217 -38.5054 -38.5029 -38.4899
   -38.4550 -38.4542 -38.4528 -38.4420 -38.4176 -38.3712 -38.3708 -38.3701
   -38.3625 -38.3578 -38.3491 -38.3465 -38.3458 -38.3398 -38.3388 -38.3302
   -38.3243 -38.3178 -38.3170 -38.3151 -38.2989 -38.2931 -38.2919 -38.2721
   -38.2711 -38.2674 -38.2666 -38.2621 -38.2579 -38.2548 -38.2522 -38.2519
   -38.2491 -38.2457 -38.2436 -38.2362 -38.2341 -38.2322 -38.2311 -38.1991
   -38.1981 -38.1962 -38.1911 -38.1873 -38.1841 -38.1817 -38.1804 -38.1729
   -38.1694 -38.1670 -38.1645 -38.1625 -38.1397 -38.1346 -38.1334 -38.1263
   -38.1252 -38.1231 -38.1218 -38.1183 -38.1124 -38.0947 -38.0835 -38.0812
   -38.0775 -38.0726 -38.0611 -38.0596 -38.0583 -38.0522 -38.0469 -38.0441
   -38.0375 -38.0261 -38.0247 -38.0207 -38.0156 -38.0053 -38.0037 -37.9984
   -37.9844 -37.9735 -37.9706 -37.9679 -37.9595 -37.9544 -37.9501 -37.9434
   -37.9399 -37.9357 -37.9341 -37.9306 -37.9198 -37.9152 -37.9141 -37.9103
   -37.9095 -37.9073 -37.8994 -37.8993 -37.8743 -37.8739 -37.8625 -37.8617
   -37.8601 -37.8507 -37.8504 -37.8427 -37.8341 -37.8138 -37.8105 -37.8088
   -37.7097 -37.6910 -37.6869 -37.6810 -37.6758 -37.6703 -37.6655 -37.6587
   -12.3180 -12.1056 -12.1033 -11.9123 -11.7795 -11.7749 -11.7260 -11.5612
   -11.5346 -11.4250 -11.4048 -11.4036 -11.3888 -11.3235 -11.2152 -11.2101
   -11.1893 -11.1884 -11.1012 -11.0808  -8.9842  -8.7231  -8.6957  -8.6955
    -8.6740  -2.9886  -2.8895  -2.8860  -2.8702  -2.7589  -2.7571  -2.7181
    -2.6807  -2.6295  -2.6166  -2.5946  -2.5916  -2.5489  -2.3629  -2.2276
    -2.2222  -2.2101  -2.1934  -2.1405  -2.1322  -2.0959  -2.0864  -1.9682
    -1.8218  -1.7894  -1.7268  -1.6803  -1.5980  -1.5584  -1.5370  -1.5125
    -1.4824  -1.4558  -1.4285  -1.4198  -1.3955  -1.3683  -1.3363  -1.3247
    -1.2959  -1.2873  -1.1842  -1.1807  -1.1441  -1.1404  -1.1165  -1.0748
    -0.9608  -0.9356  -0.9306  -0.8806  -0.8660  -0.8557  -0.8316  -0.8094
    -0.8008  -0.7535  -0.7435  -0.6612  -0.5631  -0.5526  -0.5491  -0.4560
     0.9566   1.1382   1.1397   1.2389   1.4243   1.4400   1.4415   1.4421
     1.4855   1.5669   1.5676   1.5941   1.6611   1.6789   1.6824   1.7379
     1.8559   1.9736   1.9767   2.0632   2.0641   2.1273   2.1289   2.1876
     2.1931   2.2537   2.2566   2.2883   2.3637   2.3692   2.4035   2.4040
     2.4550   2.5046   2.5692   2.5953   2.5992   2.6789   2.6817   2.7919
     2.7999   2.8033   2.8326   2.8432   2.9336   2.9420   2.9456   3.0079
     3.1904   3.2523   3.2960   3.3038   3.3440   3.3471   3.3541   3.4383
     3.4417   3.4448   3.4607   3.5690   3.5887   3.5905   3.6531   3.7151
     3.7242   3.7562   3.7627   3.7903   3.7981   3.8532   3.8780   3.8993
     4.0374   4.0416   4.0567   4.0652   4.0762   4.0859   4.0917   4.1231
     4.1625   4.1903   4.2194   4.2471   4.2596   4.3017   4.3223   4.3394
     4.3706   4.3718   4.4107   4.4168   4.4493   4.4651   4.4717   4.4846
     4.5715   4.5785   4.5945   4.6088   4.6164   4.6271   4.6452   4.6849
     4.7388   4.8693   4.8728   4.8874   4.8974   4.9091   4.9174   4.9294
     4.9641   4.9808   5.0481   5.0676   5.1258   5.1565   5.1718   5.1803
     5.1918   5.2840   5.3050   5.3190   5.3313   5.3549   5.4018   5.4348
     5.4436   5.4464   5.4596   5.4924   5.5138   5.5251   5.5502   5.5974
     5.6112   5.6318   5.6491   5.7207   5.7366   5.7420   5.7490   5.7594
     5.7796   5.7829   5.7893   5.7952   5.8230   5.8707   5.8766   5.8833
     5.8921   5.9033   5.9239   5.9346   5.9673   5.9791   6.0038   6.0254
     6.0433   6.0644   6.0782   6.0849   6.1031   6.1191   6.1298   6.1794
     6.1905   6.1998   6.2234   6.2381   6.2493   6.2837   6.3005   6.3213
     6.3478   6.3657   6.3821   6.4050   6.4368   6.4701   6.4866   6.5113
     6.5130   6.5441   6.5764   6.5802   6.6074   6.6332   6.6624   6.6808
     6.6821   6.6982   6.7316   6.7352   6.7749   6.8088   6.8591   6.8727

          k =-0.2500 0.1443 0.0000 (108355 PWs)   bands (ev):

   -66.9965 -66.9724 -66.9634 -66.9627 -66.9462 -66.9449 -66.9445 -66.9387
   -66.9296 -66.9283 -66.9278 -66.9243 -66.9237 -66.9220 -66.9178 -66.9164
   -66.9128 -66.9120 -66.9086 -66.9049 -66.9025 -66.9018 -66.8985 -66.8954
   -66.7452 -66.7275 -66.7208 -66.7207 -66.7076 -66.7075 -66.7033 -66.6964
   -66.6963 -66.6938 -66.6898 -66.6893 -66.6592 -66.6334 -66.6235 -66.6206
   -66.6070 -66.5918 -66.5857 -66.5821 -66.5775 -66.5766 -66.5747 -66.5662
   -38.8009 -38.7809 -38.7729 -38.7713 -38.6700 -38.6696 -38.6680 -38.6428
   -38.6340 -38.6261 -38.6255 -38.6231 -38.5963 -38.5812 -38.5668 -38.5641
   -38.5369 -38.5347 -38.5254 -38.5162 -38.5122 -38.5102 -38.5042 -38.4825
   -38.4660 -38.4649 -38.4638 -38.4424 -38.3827 -38.3817 -38.3765 -38.3728
   -38.3692 -38.3631 -38.3626 -38.3605 -38.3557 -38.3483 -38.3321 -38.3281
   -38.3272 -38.3181 -38.3129 -38.3118 -38.2882 -38.2817 -38.2698 -38.2671
   -38.2668 -38.2660 -38.2651 -38.2645 -38.2592 -38.2542 -38.2527 -38.2489
   -38.2458 -38.2446 -38.2373 -38.2331 -38.2324 -38.2255 -38.2184 -38.2144
   -38.2112 -38.2096 -38.2076 -38.1967 -38.1936 -38.1918 -38.1904 -38.1619
   -38.1604 -38.1550 -38.1527 -38.1503 -38.1455 -38.1409 -38.1405 -38.1288
   -38.1248 -38.1202 -38.1193 -38.1043 -38.0983 -38.0975 -38.0908 -38.0843
   -38.0804 -38.0724 -38.0685 -38.0588 -38.0534 -38.0501 -38.0478 -38.0406
   -38.0373 -38.0295 -38.0277 -38.0244 -38.0232 -38.0103 -38.0083 -38.0055
   -37.9741 -37.9701 -37.9674 -37.9604 -37.9595 -37.9561 -37.9461 -37.9449
   -37.9419 -37.9401 -37.9391 -37.9253 -37.9226 -37.9194 -37.9159 -37.9117
   -37.9097 -37.9023 -37.9020 -37.8979 -37.8721 -37.8686 -37.8682 -37.8595
   -37.8591 -37.8566 -37.8461 -37.8388 -37.8352 -37.8161 -37.8088 -37.8074
   -37.7116 -37.6956 -37.6919 -37.6810 -37.6723 -37.6683 -37.6626 -37.6555
   -12.4383 -12.0110 -11.9910 -11.8540 -11.8535 -11.7241 -11.6364 -11.6359
   -11.5609 -11.5604 -11.4808 -11.3355 -11.3352 -11.2861 -11.2674 -11.2662
   -11.2550 -11.2017 -11.0378 -11.0160  -8.9842  -8.7129  -8.7127  -8.7014
    -8.6607  -2.9729  -2.9701  -2.9299  -2.8178  -2.7471  -2.7343  -2.7117
    -2.7073  -2.7055  -2.5912  -2.5883  -2.4447  -2.4002  -2.3620  -2.3514
    -2.3481  -2.2906  -2.2377  -2.2119  -2.2067  -2.1602  -1.9711  -1.7942
    -1.7769  -1.7473  -1.6856  -1.6532  -1.6006  -1.5367  -1.5157  -1.4839
    -1.4579  -1.4408  -1.4228  -1.3938  -1.3755  -1.3494  -1.3378  -1.3106
    -1.2999  -1.2793  -1.2505  -1.2448  -1.2257  -1.1229  -1.0778  -1.0600
    -1.0161  -0.9544  -0.9090  -0.8905  -0.8847  -0.8353  -0.8328  -0.8278
    -0.8039  -0.7754  -0.7193  -0.6517  -0.6462  -0.5047  -0.4612  -0.4595
     0.7800   1.1869   1.2184   1.2185   1.4574   1.4576   1.4681   1.4698
     1.5364   1.5534   1.5538   1.5723   1.6344   1.6745   1.6752   1.6875
     1.7898   1.7913   1.8338   2.0741   2.0761   2.1189   2.1690   2.1711
     2.2243   2.2764   2.3099   2.3121   2.3362   2.4357   2.4373   2.4523
     2.4628   2.4647   2.5274   2.5563   2.5594   2.5758   2.6001   2.6288
     2.7318   2.8087   2.8115   2.8751   3.0245   3.0774   3.1411   3.2094
     3.2120   3.2423   3.2477   3.2773   3.3704   3.3763   3.4002   3.4073
     3.4105   3.4482   3.5268   3.5854   3.6132   3.6192   3.6502   3.6979
     3.7090   3.7211   3.7280   3.7430   3.7840   3.7907   3.7933   3.8752
     3.9968   4.0192   4.0284   4.0392   4.0509   4.0543   4.0688   4.1552
     4.1810   4.1903   4.2513   4.2600   4.2893   4.3104   4.3214   4.3255
     4.3384   4.3725   4.3976   4.4045   4.4173   4.4879   4.5037   4.5057
     4.5192   4.5809   4.5835   4.6825   4.7033   4.7341   4.7548   4.7831
     4.7861   4.7925   4.8446   4.8591   4.8881   4.9373   4.9494   4.9545
     4.9847   4.9963   5.0132   5.0692   5.1110   5.1529   5.1630   5.1951
     5.2039   5.2406   5.2953   5.3096   5.3427   5.3668   5.3805   5.4644
     5.4782   5.4808   5.4828   5.5238   5.5629   5.5676   5.5792   5.5842
     5.6074   5.6783   5.7037   5.7351   5.7596   5.7620   5.7685   5.7744
     5.8003   5.8203   5.8325   5.8370   5.8482   5.8942   5.9008   5.9032
     5.9124   5.9545   5.9690   5.9759   5.9821   6.0069   6.0227   6.0291
     6.0393   6.0505   6.0575   6.0677   6.0719   6.0890   6.1096   6.1912
     6.2153   6.2197   6.2372   6.2582   6.2633   6.2662   6.2812   6.3185
     6.3249   6.3263   6.3551   6.3814   6.4030   6.4149   6.4305   6.4663
     6.4775   6.4999   6.5474   6.5554   6.5642   6.5705   6.6579   6.6695
     6.6840   6.7030   6.7107   6.7282   6.7462   6.7764   6.8103   6.8225

          k = 0.2500 0.1443 0.0000 (108355 PWs)   bands (ev):

   -66.9965 -66.9724 -66.9634 -66.9627 -66.9462 -66.9449 -66.9445 -66.9387
   -66.9296 -66.9283 -66.9278 -66.9243 -66.9237 -66.9220 -66.9178 -66.9164
   -66.9128 -66.9120 -66.9086 -66.9049 -66.9025 -66.9018 -66.8985 -66.8954
   -66.7452 -66.7275 -66.7208 -66.7207 -66.7076 -66.7075 -66.7033 -66.6964
   -66.6963 -66.6938 -66.6898 -66.6893 -66.6592 -66.6334 -66.6234 -66.6206
   -66.6070 -66.5918 -66.5857 -66.5821 -66.5775 -66.5766 -66.5747 -66.5662
   -38.8009 -38.7809 -38.7729 -38.7713 -38.6700 -38.6696 -38.6680 -38.6428
   -38.6340 -38.6261 -38.6255 -38.6231 -38.5963 -38.5812 -38.5668 -38.5641
   -38.5369 -38.5347 -38.5254 -38.5162 -38.5122 -38.5102 -38.5042 -38.4825
   -38.4660 -38.4649 -38.4638 -38.4424 -38.3827 -38.3817 -38.3765 -38.3728
   -38.3692 -38.3631 -38.3626 -38.3605 -38.3557 -38.3483 -38.3321 -38.3281
   -38.3272 -38.3181 -38.3129 -38.3118 -38.2882 -38.2817 -38.2698 -38.2671
   -38.2668 -38.2660 -38.2651 -38.2645 -38.2592 -38.2542 -38.2527 -38.2489
   -38.2458 -38.2446 -38.2373 -38.2331 -38.2324 -38.2255 -38.2184 -38.2144
   -38.2112 -38.2096 -38.2076 -38.1967 -38.1936 -38.1918 -38.1904 -38.1619
   -38.1604 -38.1550 -38.1527 -38.1503 -38.1455 -38.1409 -38.1405 -38.1288
   -38.1248 -38.1202 -38.1193 -38.1043 -38.0983 -38.0975 -38.0908 -38.0843
   -38.0804 -38.0724 -38.0685 -38.0588 -38.0533 -38.0501 -38.0478 -38.0406
   -38.0373 -38.0295 -38.0277 -38.0244 -38.0232 -38.0103 -38.0083 -38.0055
   -37.9741 -37.9701 -37.9674 -37.9604 -37.9595 -37.9561 -37.9461 -37.9449
   -37.9419 -37.9401 -37.9391 -37.9253 -37.9226 -37.9194 -37.9159 -37.9117
   -37.9097 -37.9023 -37.9020 -37.8979 -37.8721 -37.8686 -37.8682 -37.8595
   -37.8591 -37.8566 -37.8461 -37.8388 -37.8352 -37.8161 -37.8088 -37.8074
   -37.7116 -37.6956 -37.6919 -37.6810 -37.6723 -37.6683 -37.6625 -37.6555
   -12.4383 -12.0110 -11.9910 -11.8540 -11.8535 -11.7241 -11.6364 -11.6359
   -11.5609 -11.5604 -11.4808 -11.3355 -11.3352 -11.2861 -11.2674 -11.2662
   -11.2550 -11.2017 -11.0378 -11.0160  -8.9842  -8.7130  -8.7127  -8.7014
    -8.6607  -2.9729  -2.9701  -2.9299  -2.8178  -2.7471  -2.7343  -2.7117
    -2.7073  -2.7055  -2.5912  -2.5883  -2.4447  -2.4002  -2.3620  -2.3514
    -2.3481  -2.2906  -2.2377  -2.2119  -2.2067  -2.1602  -1.9711  -1.7942
    -1.7769  -1.7473  -1.6856  -1.6532  -1.6006  -1.5367  -1.5157  -1.4839
    -1.4579  -1.4408  -1.4228  -1.3938  -1.3755  -1.3494  -1.3378  -1.3106
    -1.2999  -1.2793  -1.2505  -1.2448  -1.2257  -1.1229  -1.0778  -1.0600
    -1.0161  -0.9544  -0.9090  -0.8905  -0.8847  -0.8353  -0.8328  -0.8278
    -0.8039  -0.7754  -0.7193  -0.6517  -0.6463  -0.5047  -0.4612  -0.4595
     0.7800   1.1869   1.2184   1.2185   1.4574   1.4576   1.4681   1.4698
     1.5364   1.5534   1.5538   1.5723   1.6344   1.6745   1.6752   1.6875
     1.7898   1.7913   1.8338   2.0741   2.0761   2.1189   2.1690   2.1711
     2.2243   2.2764   2.3099   2.3121   2.3362   2.4357   2.4373   2.4523
     2.4628   2.4647   2.5274   2.5563   2.5595   2.5758   2.6001   2.6288
     2.7318   2.8087   2.8115   2.8751   3.0245   3.0774   3.1411   3.2094
     3.2120   3.2423   3.2477   3.2773   3.3704   3.3763   3.4002   3.4073
     3.4105   3.4482   3.5268   3.5854   3.6132   3.6192   3.6501   3.6979
     3.7090   3.7211   3.7280   3.7430   3.7840   3.7907   3.7933   3.8752
     3.9968   4.0192   4.0284   4.0392   4.0509   4.0543   4.0688   4.1552
     4.1810   4.1903   4.2513   4.2600   4.2894   4.3104   4.3214   4.3255
     4.3384   4.3725   4.3976   4.4045   4.4173   4.4879   4.5037   4.5057
     4.5192   4.5809   4.5835   4.6825   4.7033   4.7341   4.7548   4.7831
     4.7861   4.7925   4.8446   4.8591   4.8881   4.9373   4.9494   4.9545
     4.9847   4.9963   5.0132   5.0692   5.1110   5.1529   5.1630   5.1951
     5.2039   5.2407   5.2952   5.3096   5.3427   5.3668   5.3805   5.4644
     5.4782   5.4808   5.4828   5.5238   5.5629   5.5676   5.5792   5.5842
     5.6074   5.6783   5.7037   5.7352   5.7596   5.7620   5.7685   5.7744
     5.8003   5.8203   5.8325   5.8370   5.8482   5.8942   5.9008   5.9032
     5.9124   5.9545   5.9690   5.9759   5.9821   6.0069   6.0227   6.0291
     6.0393   6.0505   6.0575   6.0677   6.0719   6.0890   6.1096   6.1912
     6.2153   6.2197   6.2372   6.2582   6.2633   6.2662   6.2812   6.3185
     6.3249   6.3263   6.3551   6.3814   6.4030   6.4149   6.4305   6.4663
     6.4775   6.4999   6.5474   6.5554   6.5642   6.5705   6.6579   6.6694
     6.6840   6.7030   6.7106   6.7283   6.7461   6.7764   6.8096   6.8239

          k = 0.5000-0.2887 0.0000 (108310 PWs)   bands (ev):

   -66.9870 -66.9863 -66.9655 -66.9648 -66.9400 -66.9388 -66.9371 -66.9364
   -66.9344 -66.9332 -66.9266 -66.9260 -66.9246 -66.9233 -66.9206 -66.9203
   -66.9089 -66.9084 -66.9075 -66.9051 -66.9028 -66.9020 -66.9000 -66.8961
   -66.7381 -66.7378 -66.7222 -66.7222 -66.7027 -66.7026 -66.6999 -66.6997
   -66.6949 -66.6948 -66.6918 -66.6916 -66.6585 -66.6328 -66.6265 -66.6210
   -66.6059 -66.5907 -66.5839 -66.5810 -66.5789 -66.5770 -66.5753 -66.5668
   -38.7922 -38.7909 -38.7686 -38.7670 -38.6640 -38.6617 -38.6580 -38.6573
   -38.6345 -38.6324 -38.6302 -38.6286 -38.5956 -38.5942 -38.5691 -38.5661
   -38.5333 -38.5304 -38.5221 -38.5218 -38.5187 -38.5148 -38.4977 -38.4952
   -38.4587 -38.4575 -38.4467 -38.4461 -38.3921 -38.3909 -38.3686 -38.3681
   -38.3627 -38.3623 -38.3532 -38.3521 -38.3414 -38.3404 -38.3303 -38.3289
   -38.3242 -38.3231 -38.3160 -38.3147 -38.3030 -38.3019 -38.2722 -38.2696
   -38.2693 -38.2693 -38.2650 -38.2639 -38.2630 -38.2613 -38.2586 -38.2509
   -38.2456 -38.2448 -38.2432 -38.2360 -38.2350 -38.2348 -38.2128 -38.2109
   -38.2006 -38.1937 -38.1916 -38.1851 -38.1829 -38.1819 -38.1814 -38.1791
   -38.1707 -38.1651 -38.1637 -38.1596 -38.1377 -38.1331 -38.1327 -38.1321
   -38.1288 -38.1284 -38.1160 -38.1155 -38.0996 -38.0990 -38.0928 -38.0795
   -38.0776 -38.0698 -38.0622 -38.0583 -38.0548 -38.0499 -38.0455 -38.0427
   -38.0382 -38.0349 -38.0234 -38.0202 -38.0197 -38.0138 -37.9947 -37.9916
   -37.9841 -37.9810 -37.9719 -37.9687 -37.9585 -37.9575 -37.9441 -37.9421
   -37.9406 -37.9367 -37.9331 -37.9309 -37.9182 -37.9157 -37.9141 -37.9118
   -37.9056 -37.9053 -37.9041 -37.9032 -37.8701 -37.8696 -37.8657 -37.8654
   -37.8553 -37.8551 -37.8463 -37.8462 -37.8338 -37.8132 -37.8116 -37.8085
   -37.7076 -37.6915 -37.6900 -37.6800 -37.6751 -37.6720 -37.6637 -37.6589
   -12.2625 -12.2599 -11.8895 -11.8882 -11.8776 -11.8733 -11.6442 -11.6436
   -11.4729 -11.4724 -11.3499 -11.3463 -11.3352 -11.3346 -11.3107 -11.3103
   -11.1321 -11.1256 -11.1089 -11.1083  -8.9842  -8.7145  -8.7143  -8.6798
    -8.6796  -2.9399  -2.9336  -2.8427  -2.8422  -2.7791  -2.7746  -2.7720
    -2.7716  -2.6496  -2.6487  -2.5340  -2.5308  -2.3742  -2.3690  -2.3079
    -2.3019  -2.2563  -2.2492  -2.1355  -2.1235  -2.0444  -2.0403  -1.8563
    -1.8439  -1.7427  -1.7224  -1.7052  -1.6747  -1.6063  -1.5695  -1.5173
    -1.4955  -1.4485  -1.4417  -1.4138  -1.3902  -1.3537  -1.3066  -1.2782
    -1.2637  -1.2606  -1.2423  -1.2383  -1.1347  -1.1244  -1.0545  -1.0477
    -1.0300  -1.0218  -0.9021  -0.9015  -0.8578  -0.8523  -0.8336  -0.8215
    -0.7332  -0.7291  -0.6702  -0.6638  -0.6219  -0.6192  -0.4852  -0.4836
     1.0207   1.0245   1.2064   1.2066   1.4366   1.4390   1.4579   1.4582
     1.5334   1.5335   1.5497   1.5504   1.6910   1.6933   1.7062   1.7075
     1.9270   1.9301   1.9348   1.9370   2.1055   2.1112   2.1459   2.1483
     2.2386   2.2408   2.3724   2.3728   2.3943   2.3956   2.4270   2.4277
     2.4649   2.4657   2.4774   2.4785   2.5837   2.5894   2.7538   2.7597
     2.8104   2.8127   2.8281   2.8366   3.0291   3.0316   3.0481   3.0517
     3.1195   3.1200   3.2104   3.2211   3.3363   3.3414   3.3963   3.4023
     3.4324   3.4357   3.5270   3.5324   3.6233   3.6379   3.6736   3.6847
     3.7410   3.7508   3.8227   3.8293   3.8790   3.8874   3.9139   3.9215
     3.9424   3.9541   3.9841   3.9890   4.0091   4.0247   4.1388   4.1545
     4.1615   4.1636   4.2666   4.2872   4.3226   4.3299   4.3443   4.3592
     4.3700   4.3830   4.3902   4.4044   4.4573   4.4679   4.4808   4.4852
     4.4943   4.5012   4.6107   4.6180   4.6380   4.6585   4.6903   4.6905
     4.7076   4.7166   4.8162   4.8522   4.9855   4.9998   5.0020   5.0070
     5.0098   5.0337   5.0756   5.1070   5.1288   5.1318   5.1448   5.1572
     5.1932   5.1981   5.2749   5.3002   5.3535   5.3553   5.3651   5.3695
     5.4472   5.4512   5.4714   5.5006   5.5323   5.5361   5.5704   5.5778
     5.5894   5.6048   5.6119   5.6501   5.7184   5.7215   5.7543   5.7620
     5.7664   5.7771   5.7909   5.8168   5.8583   5.8705   5.8877   5.8978
     5.9082   5.9108   5.9221   5.9347   5.9774   6.0008   6.0144   6.0171
     6.0513   6.0593   6.0825   6.1279   6.1655   6.1732   6.1784   6.1864
     6.1895   6.2000   6.2090   6.2209   6.2247   6.2674   6.3449   6.3522
     6.3544   6.3907   6.3946   6.4021   6.4353   6.4508   6.4584   6.4711
     6.4760   6.4866   6.5070   6.5320   6.6228   6.6258   6.6341   6.6357
     6.6644   6.6769   6.7186   6.7616   6.8616   6.8644   6.8747   6.8906

          k =-0.5000-0.2887 0.0000 (108310 PWs)   bands (ev):

   -66.9870 -66.9863 -66.9655 -66.9648 -66.9400 -66.9388 -66.9371 -66.9364
   -66.9344 -66.9332 -66.9266 -66.9260 -66.9246 -66.9233 -66.9206 -66.9203
   -66.9089 -66.9084 -66.9075 -66.9051 -66.9028 -66.9020 -66.9000 -66.8961
   -66.7381 -66.7378 -66.7222 -66.7221 -66.7027 -66.7026 -66.6999 -66.6997
[...]
     6.5993   6.6432   6.6684   6.6739   6.6832   6.7406   6.7951   6.7985

          k = 0.5000-0.0000 0.0000 (108308 PWs)   bands (ev):

   -67.0644 -67.0527 -67.0526 -67.0297 -67.0218 -67.0139 -67.0130 -67.0083
   -67.0081 -67.0054 -67.0052 -67.0026 -67.0026 -66.9995 -66.9983 -66.9894
   -66.9843 -66.9790 -66.9758 -66.9758 -66.9728 -66.9723 -66.9710 -66.9694
   -66.8218 -66.8138 -66.8137 -66.8028 -66.7766 -66.7720 -66.7711 -66.7710
   -66.7663 -66.7661 -66.7652 -66.7636 -66.7174 -66.7101 -66.7073 -66.6994
   -66.6701 -66.6661 -66.6603 -66.6590 -66.6553 -66.6550 -66.6535 -66.6518
   -38.8570 -38.8443 -38.8443 -38.8233 -38.7304 -38.7302 -38.7244 -38.7187
   -38.7073 -38.7041 -38.7030 -38.7025 -38.6690 -38.6561 -38.6557 -38.6190
   -38.6143 -38.6077 -38.6076 -38.6043 -38.5930 -38.5894 -38.5890 -38.5846
   -38.5282 -38.5274 -38.5273 -38.5214 -38.5124 -38.5051 -38.5042 -38.5038
   -38.4909 -38.4309 -38.4279 -38.4263 -38.4263 -38.4135 -38.4135 -38.4020
   -38.3994 -38.3954 -38.3954 -38.3904 -38.3747 -38.3663 -38.3662 -38.3622
   -38.3621 -38.3580 -38.3549 -38.3526 -38.3426 -38.3425 -38.3363 -38.3345
   -38.3269 -38.3259 -38.3202 -38.3103 -38.3093 -38.3056 -38.3054 -38.2770
   -38.2764 -38.2738 -38.2724 -38.2718 -38.2613 -38.2612 -38.2571 -38.2436
   -38.2418 -38.2401 -38.2400 -38.2373 -38.2164 -38.2102 -38.2096 -38.2016
   -38.1998 -38.1983 -38.1983 -38.1914 -38.1871 -38.1661 -38.1657 -38.1635
   -38.1407 -38.1355 -38.1291 -38.1278 -38.1230 -38.1222 -38.1189 -38.1185
   -38.0974 -38.0904 -38.0868 -38.0835 -38.0826 -38.0687 -38.0683 -38.0680
   -38.0516 -38.0368 -38.0344 -38.0328 -38.0217 -38.0211 -38.0141 -38.0132
   -38.0086 -38.0079 -38.0062 -37.9962 -37.9907 -37.9881 -37.9878 -37.9863
   -37.9842 -37.9833 -37.9782 -37.9780 -37.9400 -37.9399 -37.9343 -37.9286
   -37.9267 -37.9178 -37.9178 -37.9101 -37.8967 -37.8926 -37.8911 -37.8907
   -37.7676 -37.7656 -37.7622 -37.7543 -37.7490 -37.7393 -37.7385 -37.7321
   -12.3443 -12.1302 -12.1295 -11.9436 -11.8002 -11.7998 -11.7623 -11.5965
   -11.5193 -11.4585 -11.4385 -11.4383 -11.3767 -11.3665 -11.2498 -11.2484
   -11.1618 -11.1614 -11.1385 -11.0443  -9.3236  -9.2743  -9.2740  -9.2344
    -7.1470  -3.0212  -2.9181  -2.9175  -2.8989  -2.7844  -2.7834  -2.7340
    -2.7058  -2.6476  -2.6444  -2.6133  -2.6124  -2.5655  -2.3904  -2.2472
    -2.2416  -2.2411  -2.1922  -2.1546  -2.1541  -2.1065  -2.1061  -1.9796
    -1.7929  -1.7926  -1.7131  -1.6930  -1.6245  -1.5543  -1.5534  -1.4825
    -1.4346  -1.4289  -1.4033  -1.4024  -1.3984  -1.3875  -1.3233  -1.2074
    -1.2068  -1.1633  -1.1618  -1.1311  -1.0835  -0.9805  -0.9723  -0.9710
    -0.9162  -0.9033  -0.8810  -0.8656  -0.8492  -0.8484  -0.7540  -0.7530
    -0.6830  -0.5757  -0.5617  -0.5616  -0.4208   0.3834   0.4206   0.4384
     0.6809   0.7367   0.7374   0.7749   0.9719   0.9750   1.0195   1.0228
     1.0232   1.0818   1.0881   1.0883   1.2839   1.4226   1.4252   1.6243
     1.7805   1.8882   1.8888   1.9191   1.9902   1.9924   2.0047   2.0052
     2.0928   2.1728   2.1728   2.2410   2.3151   2.3160   2.3501   2.3504
     2.3912   2.4495   2.5073   2.5190   2.5196   2.6104   2.6107   2.6652
     2.7356   2.7360   2.7482   2.7727   2.8483   2.8496   2.8657   2.9529
     3.0951   3.1833   3.2285   3.2305   3.2750   3.2757   3.2969   3.3695
     3.3779   3.3779   3.3884   3.4803   3.4809   3.4952   3.5820   3.6475
     3.6524   3.6833   3.6870   3.7154   3.7190   3.7857   3.7877   3.8002
     3.9677   3.9684   3.9735   3.9989   4.0008   4.0156   4.0177   4.0497
     4.0770   4.1360   4.1516   4.1646   4.1654   4.2299   4.2335   4.2360
     4.2727   4.2754   4.3220   4.3519   4.3706   4.3721   4.3904   4.3948
     4.4869   4.4877   4.5100   4.5200   4.5323   4.5391   4.5483   4.5982
     4.6277   4.7696   4.7903   4.7929   4.8295   4.8361   4.8565   4.8663
     4.8966   4.9650   4.9775   4.9820   5.0626   5.0663   5.1067   5.1243
     5.1260   5.1899   5.2282   5.2562   5.2760   5.2799   5.3116   5.3607
     5.3767   5.3776   5.3823   5.4182   5.4281   5.4519   5.4528   5.5352
     5.5374   5.5454   5.5705   5.6659   5.6704   5.6709   5.6714   5.6836
     5.7168   5.7175   5.7210   5.7364   5.7526   5.7984   5.8055   5.8092
     5.8146   5.8296   5.8439   5.8633   5.8637   5.8984   5.9255   5.9722
     5.9759   5.9959   6.0105   6.0178   6.0405   6.0423   6.0612   6.1281
     6.1291   6.1449   6.1734   6.1739   6.2040   6.2335   6.2384   6.2557
     6.2916   6.2960   6.3031   6.3103   6.3960   6.4074   6.4089   6.4508
     6.4546   6.4561   6.5013   6.5014   6.5426   6.5795   6.5954   6.5994
     6.6001   6.6457   6.6704   6.6716   6.6828   6.7401   6.7955   6.7966

     the Fermi energy is     5.1328 ev

!    total energy              =  -12616.46800822 Ry
     total all-electron energy =   -103594.971815 Ry
     estimated scf accuracy    <          9.9E-11 Ry
     smearing contrib. (-TS)   =       0.00926163 Ry
     internal energy E=F+TS    =  -12616.47726985 Ry

     The total energy is F=E-TS. E is the sum of the following terms:
     one-electron contribution =  -67039.60830981 Ry
     hartree contribution      =   33631.84681757 Ry
     xc contribution           =   -1216.03926516 Ry
     ewald contribution        =   25769.68647060 Ry
     DFT-D3 Dispersion         =      -1.08048347 Ry
     one-center paw contrib.   =   -3761.28249957 Ry

     convergence has been achieved in  40 iterations

     negative rho (up, down):  1.735E-04 0.000E+00

     Forces acting on atoms (cartesian axes, Ry/au):

     atom    1 type  1   force =    -0.00014257   -0.00004965   -0.00024115
     atom    2 type  1   force =    -0.00013206   -0.00007698   -0.00001916
     atom    3 type  1   force =     0.00009543   -0.00001068   -0.00010843
     atom    4 type  1   force =    -0.00009962    0.00011404   -0.00007675
     atom    5 type  1   force =     0.00014850   -0.00015420   -0.00017447
     atom    6 type  1   force =     0.00001141   -0.00000959   -0.00027897
     atom    7 type  2   force =     0.00008316    0.00011420    0.00001436
     atom    8 type  2   force =     0.00014060    0.00000467    0.00052398
     atom    9 type  2   force =    -0.00003583   -0.00003074    0.00075815
     atom   10 type  1   force =    -0.00007614   -0.00037399    0.00005945
     atom   11 type  1   force =    -0.00007605   -0.00024289   -0.00041651
     atom   12 type  1   force =     0.00025330    0.00006918    0.00022220
     atom   13 type  1   force =     0.00013347   -0.00003717    0.00016828
     atom   14 type  1   force =    -0.00016109    0.00031276   -0.00028382
     atom   15 type  1   force =     0.00027905    0.00027422   -0.00000639
     atom   16 type  2   force =    -0.00003337    0.00003319   -0.00053239
     atom   17 type  2   force =    -0.00020834    0.00018566    0.00013861
     atom   18 type  2   force =    -0.00023753    0.00005745   -0.00005921
     atom   19 type  1   force =    -0.00012683    0.00006879   -0.00015776
     atom   20 type  1   force =    -0.00000240    0.00000008    0.00020191
     atom   21 type  1   force =    -0.00014248    0.00004959   -0.00024114
     atom   22 type  1   force =     0.00014857    0.00015351   -0.00017452
     atom   23 type  1   force =     0.00026167   -0.00001285   -0.00023925
     atom   24 type  1   force =     0.00017407   -0.00000001   -0.00017425
     atom   25 type  2   force =     0.00042283    0.00000010    0.00023975
     atom   26 type  2   force =    -0.00003588    0.00003045    0.00075826
     atom   27 type  2   force =     0.00007380    0.00006809    0.00063953
     atom   28 type  1   force =     0.00011618   -0.00016465   -0.00010494
     atom   29 type  1   force =     0.00013492    0.00000005    0.00054634
     atom   30 type  1   force =    -0.00007616    0.00037452    0.00005973
     atom   31 type  1   force =    -0.00016077   -0.00031291   -0.00028375
     atom   32 type  1   force =    -0.00032007    0.00039567   -0.00000306
     atom   33 type  1   force =     0.00034812    0.00000009   -0.00043189
     atom   34 type  2   force =    -0.00003173   -0.00000015   -0.00061815
     atom   35 type  2   force =    -0.00023759   -0.00005788   -0.00005924
     atom   36 type  2   force =    -0.00008723   -0.00002083   -0.00011662
     atom   37 type  1   force =    -0.00010139    0.00021281   -0.00012500
     atom   38 type  1   force =    -0.00013214    0.00007686   -0.00001960
     atom   39 type  1   force =    -0.00012653   -0.00006912   -0.00015763
     atom   40 type  1   force =     0.00026185    0.00001263   -0.00023924
     atom   41 type  1   force =     0.00005973   -0.00012781   -0.00038246
     atom   42 type  1   force =     0.00001125    0.00000922   -0.00027893
     atom   43 type  2   force =     0.00008357   -0.00011444    0.00001434
     atom   44 type  2   force =     0.00007383   -0.00006845    0.00063960
     atom   45 type  2   force =    -0.00004997    0.00012510    0.00014268
     atom   46 type  1   force =     0.00017390    0.00008733    0.00016493
     atom   47 type  1   force =    -0.00007655    0.00024299   -0.00041657
     atom   48 type  1   force =     0.00011620    0.00016469   -0.00010459
     atom   49 type  1   force =    -0.00032021   -0.00039568   -0.00000296
     atom   50 type  1   force =    -0.00009219    0.00015740    0.00021141
     atom   51 type  1   force =     0.00027878   -0.00027394   -0.00000651
     atom   52 type  2   force =    -0.00003318   -0.00003309   -0.00053215
     atom   53 type  2   force =    -0.00008726    0.00002078   -0.00011678
     atom   54 type  2   force =    -0.00015913    0.00004955    0.00090359
     atom   55 type  1   force =     0.00009595    0.00001056   -0.00010851
     atom   56 type  1   force =    -0.00017660   -0.00000021   -0.00001611
     atom   57 type  1   force =    -0.00010134   -0.00021282   -0.00012511
     atom   58 type  1   force =     0.00005941    0.00012786   -0.00038219
     atom   59 type  1   force =    -0.00009961   -0.00011402   -0.00007637
     atom   60 type  1   force =    -0.00011788    0.00000018   -0.00075035
     atom   61 type  2   force =    -0.00033313   -0.00000015    0.00004140
     atom   62 type  2   force =    -0.00004986   -0.00012515    0.00014281
     atom   63 type  2   force =     0.00014075   -0.00000460    0.00052437
     atom   64 type  1   force =     0.00025327   -0.00006880    0.00022245
     atom   65 type  1   force =    -0.00004066   -0.00000003   -0.00008900
     atom   66 type  1   force =     0.00017399   -0.00008754    0.00016472
     atom   67 type  1   force =    -0.00009238   -0.00015713    0.00021107
     atom   68 type  1   force =     0.00013349    0.00003716    0.00016837
     atom   69 type  1   force =     0.00065063   -0.00000016    0.00028603
     atom   70 type  2   force =     0.00025294    0.00000014   -0.00014351
     atom   71 type  2   force =    -0.00015912   -0.00004911    0.00090349
     atom   72 type  2   force =    -0.00020856   -0.00018568    0.00013825
     atom   73 type  3   force =     0.00068080    0.00000105   -0.00018715
     atom   74 type  4   force =    -0.00022461   -0.00000020    0.00016917
     atom   75 type  4   force =    -0.00024282   -0.00053488   -0.00029943
     atom   76 type  4   force =    -0.00063632   -0.00000164    0.00028078
     atom   77 type  4   force =    -0.00024025    0.00053722   -0.00029802

     Total force =     0.003753     Total SCF correction =     0.000061
     Energy error            =      3.6E-05 Ry
     Gradient error          =      9.0E-04 Ry/Bohr

     bfgs converged in  35 scf cycles and  34 bfgs steps
     (criteria: energy <  1.0E-04 Ry, force <  1.0E-03 Ry/Bohr)

     End of BFGS Geometry Optimization

     Final energy             =  -12616.4680082194 Ry

     File tmp/CH4-H31_Rot30_ontop_/CH4-H31_Rot30_ontop_.bfgs deleted, as requested
Begin final coordinates

ATOMIC_POSITIONS (angstrom)
Cr              -1.5807803231        2.7656513679        8.1528915953
Cr               3.2059706233       -0.0004917144        8.1541162555
Cr               0.7902065854        1.3519364227        8.1534528094
Cr               1.6448469054        2.8229784114        6.0232694568
Cr              -0.7338397073        1.2908366618        6.0234176208
Cr               1.5031763675       -0.0006495477        6.0260475339
N                0.0118787081       -0.0025764498        4.9832912609
N                2.3868062074        1.3709729586        7.0114007648
N                0.0131153047        2.7438756401        7.0050964902
Cr              -1.6376579003        2.8548355777       12.4275428120
Cr               3.3055254765        0.0017930982       12.4294522549
Cr               0.7383558803        1.2539876921       12.4226020735
Cr               1.6040134972        2.7647107332       10.3534686227
Cr              -0.7683766190        1.3533495945       10.3514394324
Cr               1.5744536738       -0.0017457159       10.3489610873
N                0.0130306447        0.0023547010        9.2383613617
N                2.3874732367        1.3714104849       11.4678975637
N                0.0137527583        2.7440230135       11.4775980941
Cr              -3.9570512070        6.8811696469        8.1560377620
Cr               0.8292763938        4.1147933668        8.1504469479
Cr              -1.5807805991        5.4639331960        8.1528909573
Cr              -0.7338398154        6.9387512812        6.0234169040
Cr              -3.1114190940        5.4061060373        6.0274134632
Cr              -0.8747440795        4.1147923823        6.0214821493
N               -2.3692153262        4.1147922068        4.9823593850
N                0.0131149116        5.4857103815        7.0050940851
N               -2.3624541367        6.8570963427        7.0103005442
Cr              -4.0095943358        6.9634827937       12.4281964194
Cr               0.9264645137        4.1147858445       12.4422030498
Cr              -1.6376580397        5.3747402396       12.4275425505
Cr              -0.7683762248        6.8762304624       10.3514409401
Cr              -3.1384627697        5.4688918608       10.3468079472
Cr              -0.7992053717        4.1147904538       10.3535203899
N               -2.3576274517        4.1147920806        9.2387411156
N                0.0137538485        5.4855571866       11.4776017038
N               -2.3620774457        6.8594605326       11.4713648726
Cr               3.1654015513        2.7634815832        8.1562587940
Cr               7.9573398932        0.0004654132        8.1541165593
Cr               5.5456876037        1.3484144525        8.1560387733
Cr               6.3913199338        2.8234798428        6.0274146222
Cr               4.0181866592        1.2925868022        6.0280128816
Cr               6.2545460513        0.0006270306        6.0260467717
N                4.7632470732        0.0025554731        4.9832912406
N                7.1402853410        1.3724892341        7.0103014956
N                4.7635836308        2.7422373848        7.0173402448
Cr               3.1264322369        2.8449578767       12.4202626703
Cr               8.0568994966       -0.0018223790       12.4294531017
Cr               5.4931451763        1.2660967574       12.4281932678
Cr               6.3642778004        2.7606887754       10.3468075412
Cr               3.9820127792        1.3516105105       10.3474178697
Cr               6.3258237041        0.0017134178       10.3489609721
N                4.7644004550       -0.0023838676        9.2383613871
N                7.1406615397        1.3701176593       11.4713635501
N                4.7681021960        2.7432359159       11.4599171096
Cr               0.7902065046        6.8776474952        8.1534509265
Cr               5.5825022157        4.1147935266        8.1575172397
Cr               3.1654003734        5.4661027374        8.1562573780
Cr               4.0181878662        6.9370000567        6.0280111651
Cr               1.6448464847        5.4066067633        6.0232668822
Cr               3.8816454196        4.1147919234        6.0312775548
N                2.3943042901        4.1147919623        4.9835033407
N                4.7635828963        5.4873479939        7.0173381128
N                2.3868058853        6.8586120803        7.0113972516
Cr               0.7383593873        6.9755873962       12.4226062681
Cr               5.6815520560        4.1147896535       12.4241396736
Cr               3.1264350859        5.3846254151       12.4202673140
Cr               3.9820135012        6.8779696428       10.3474192276
Cr               1.6040132671        5.4648697026       10.3534717500
Cr               3.9490624542        4.1147911418       10.3446920607
N                2.3839458774        4.1147920573        9.2377727977
N                4.7681020804        5.4863438367       11.4599188804
N                2.3874743425        6.8581694744       11.4678999671
C                0.7252379308        4.1150296330       15.9648501326
H                1.1265469671        4.1140932778       16.9853080426
H                1.0791081646        3.2196237262       15.4369628910
H               -0.3698686526        4.1151765615       15.9893599302
H                1.0793825502        5.0111806432       15.4384468330
End final coordinates



     Writing all to output data dir tmp/CH4-H31_Rot30_ontop_/CH4-H31_Rot30_ontop_.save/ :
     XML data file, charge density, pseudopotentials, collected wavefunctions
 
     init_run     :     23.34s CPU     24.17s WALL (       1 calls)
     electrons    :  59753.49s CPU  61372.04s WALL (      35 calls)
     update_pot   :     43.17s CPU     45.06s WALL (      34 calls)
     forces       :    350.76s CPU    363.72s WALL (      35 calls)
     force_dftd3  :      7.75s CPU      8.17s WALL (      35 calls)

     Called by init_run:
     wfcinit      :     14.08s CPU     14.48s WALL (       1 calls)
     potinit      :      2.37s CPU      2.51s WALL (       1 calls)
     hinit0       :      0.34s CPU      0.40s WALL (       1 calls)

     Called by electrons:
     c_bands      :  49147.41s CPU  50186.55s WALL (    1513 calls)
     sum_band     :   8310.59s CPU   8610.93s WALL (    1513 calls)
     v_of_rho     :    905.22s CPU    966.65s WALL (    1548 calls)
     newd         :    665.42s CPU    858.39s WALL (    1548 calls)
     PAW_pot      :    555.48s CPU    562.64s WALL (    1582 calls)
     mix_rho      :    128.81s CPU    138.09s WALL (    1513 calls)
     energy_dftd3 :      5.44s CPU      5.48s WALL (      35 calls)

     Called by c_bands:
     init_us_2    :    871.08s CPU    882.45s WALL (    9288 calls)
     cegterg      :  45980.48s CPU  46991.71s WALL (    4539 calls)

     Called by *egterg:
     cdiaghg      :   1643.57s CPU   1662.18s WALL (   15934 calls)
     h_psi        :  22543.75s CPU  22987.06s WALL (   16039 calls)
     s_psi        :   5282.59s CPU   5337.62s WALL (   16039 calls)
     g_psi        :    105.30s CPU    106.69s WALL (   11497 calls)

     Called by h_psi:
     h_psi:calbec :   5338.71s CPU   5396.73s WALL (   16039 calls)
     vloc_psi     :  11719.73s CPU  11919.16s WALL (   16039 calls)
                                        0.00s GPU  (   16039 calls)
     add_vuspsi   :   5301.32s CPU   5357.59s WALL (   16039 calls)

     General routines
     calbec       :   8075.76s CPU   8161.41s WALL (   21100 calls)
     fft          :    743.58s CPU    798.97s WALL (   20473 calls)
     ffts         :      8.81s CPU     10.06s WALL (    3061 calls)
     fftw         :  11457.74s CPU  11642.53s WALL (11438880 calls)
     interpolate  :     51.87s CPU     57.26s WALL (    1548 calls)
 
     Parallel routines
 
     PWSCF        :     16h44m CPU     17h11m WALL

 
   This run was terminated on:  11: 3:17   5Jun2026            

=------------------------------------------------------------------------------=
   JOB DONE.
=------------------------------------------------------------------------------=
