
     Program PWSCF v.7.5 starts on  5Jun2026 at  2:56:15 

     This program is part of the open-source Quantum ESPRESSO suite
     for quantum simulation of materials; please cite
         "P. Giannozzi et al., J. Phys.:Condens. Matter 21 395502 (2009);
         "P. Giannozzi et al., J. Phys.:Condens. Matter 29 465901 (2017);
         "P. Giannozzi et al., J. Chem. Phys. 152 154105 (2020);
          URL http://www.quantum-espresso.org", 
     in publications or presentations arising from this work. More details at
     http://www.quantum-espresso.org/quote

     Parallel version (MPI & OpenMP), running on      64 processor cores
     Number of MPI processes:                64
     Threads/MPI process:                     1

     MPI processes distributed on     1 nodes
     187656 MiB available memory on the printing compute node when the environment starts
 
     Reading input from generated_inputs/adsorcion/pw-CH4-H31_Rot60_hollow_.in
Warning: card &CELL ignored

     Current dimensions of program PWSCF are:
     Max number of different atomic species (ntypx) = 10
     Max number of k-points (npk) =  40000
     Max angular momentum in pseudopotentials (lmaxx) =  4
     file Cr.pbe-spn-kjpaw_psl.1.0.0.UPF: wavefunction(s)  3S 3P 3D renormalized
     file N.pbe-n-kjpaw_psl.1.0.0.UPF: wavefunction(s)  2S renormalized
     file C.pbe-n-kjpaw_psl.1.0.0.UPF: wavefunction(s)  2S 2P renormalized
     file H.pbe-kjpaw_psl.1.0.0.UPF: wavefunction(s)  1S renormalized
 
     K-points division:     npool     =       4
     R & G space division:  proc/nbgrp/npool/nimage =      16
     Subspace diagonalization in iterative solution of the eigenvalue problem:
     one sub-group per band group will be used
     scalapack distributed-memory algorithm (size of sub-group:  4*  4 procs)

 
     Parallelization info
     --------------------
     sticks:   dense  smooth     PW     G-vecs:    dense   smooth      PW
     Min        1166     388    102               281408    54158    7274
     Max        1167     389    103               281417    54165    7281
     Sum       18661    6217   1639              4502593   866593  116429
 
     Using Slab Decomposition
 


     bravais-lattice index     =            0
     lattice parameter (alat)  =      17.9576  a.u.
     unit-cell volume          =   10952.5767 (a.u.)^3
     number of atoms/cell      =           77
     number of atomic types    =            4
     number of electrons       =       800.00
     number of Kohn-Sham states=          480
     kinetic-energy cutoff     =      70.0000  Ry
     charge density cutoff     =     840.0000  Ry
     scf convergence threshold =      1.0E-08
     mixing beta               =       0.2000
     number of iterations used =            8  plain     mixing
     energy convergence thresh.=      1.0E-04
     force convergence thresh. =      1.0E-03
     Exchange-correlation= SLA  PW   PBX  PBC
                           (   1   4   3   4   0   0   0)
     nstep                     =          200


     celldm(1)=  17.957575  celldm(2)=   0.000000  celldm(3)=   0.000000
     celldm(4)=   0.000000  celldm(5)=   0.000000  celldm(6)=   0.000000

     crystal axes: (cart. coord. in units of alat)
               a(1) = (   1.000000   0.000000   0.000000 )  
               a(2) = (  -0.500000   0.866025   0.000000 )  
               a(3) = (   0.000000   0.000000   2.183951 )  

     reciprocal axes: (cart. coord. in units 2 pi/alat)
               b(1) = (  1.000000  0.577351  0.000000 )  
               b(2) = (  0.000000  1.154701  0.000000 )  
               b(3) = (  0.000000  0.000000  0.457886 )  


     PseudoPot. # 1 for Cr read from file:
     pseudo/Cr.pbe-spn-kjpaw_psl.1.0.0.UPF
     MD5 check sum: 198f1a2427a48552563eee314eba32ba
     Pseudo is Projector augmented-wave + core cor, Zval = 14.0
     Generated using &quot;atomic&quot; code by A. Dal Corso  v.6.3
     Shape of augmentation charge: PSQ
     Using radial grid of 1183 points,  6 beta functions with: 
                l(1) =   0
                l(2) =   0
                l(3) =   1
                l(4) =   1
                l(5) =   2
                l(6) =   2
     Q(r) pseudized with 0 coefficients 


     PseudoPot. # 2 for N  read from file:
     pseudo/N.pbe-n-kjpaw_psl.1.0.0.UPF
     MD5 check sum: 14c48229446f9f2d411169a3abcbc3fa
     Pseudo is Projector augmented-wave + core cor, Zval =  5.0
     Generated using &quot;atomic&quot; code by A. Dal Corso  v.6.3
     Shape of augmentation charge: PSQ
     Using radial grid of 1085 points,  4 beta functions with: 
                l(1) =   0
                l(2) =   0
                l(3) =   1
                l(4) =   1
     Q(r) pseudized with 0 coefficients 


     PseudoPot. # 3 for C  read from file:
     pseudo/C.pbe-n-kjpaw_psl.1.0.0.UPF
     MD5 check sum: 5f16ad9a65e90284d1d834d4ab3b0f7d
     Pseudo is Projector augmented-wave + core cor, Zval =  4.0
     Generated using &quot;atomic&quot; code by A. Dal Corso  v.6.3
     Shape of augmentation charge: PSQ
     Using radial grid of 1073 points,  4 beta functions with: 
                l(1) =   0
                l(2) =   0
                l(3) =   1
                l(4) =   1
     Q(r) pseudized with 0 coefficients 


     PseudoPot. # 4 for H  read from file:
     pseudo/H.pbe-kjpaw_psl.1.0.0.UPF
     MD5 check sum: d81a744832360e4a8af0b0b5b123bc2a
     Pseudo is Projector augmented-wave, Zval =  1.0
     Generated using &quot;atomic&quot; code by A. Dal Corso  v.6.3MaX
     Shape of augmentation charge: PSQ
     Using radial grid of  929 points,  2 beta functions with: 
                l(1) =   0
                l(2) =   0
     Q(r) pseudized with 0 coefficients 


     atomic species   valence    mass     pseudopotential
     Cr               14.00    51.99610     Cr( 1.00)
     N                 5.00    14.00670     N ( 1.00)
     C                 4.00    12.01100     C ( 1.00)
     H                 1.00     1.00800     H ( 1.00)

     No symmetry found



   Cartesian axes

     site n.     atom                  positions (alat units)
         1        Cr     tau(   1) = (  -0.1681591   0.2912601   0.8673998  )
         2        Cr     tau(   2) = (   0.3363182   0.0000000   0.8673998  )
         3        Cr     tau(   3) = (   0.0818405   0.1417518   0.8673993  )
         4        Cr     tau(   4) = (   0.1684970   0.2918454   0.6425759  )
         5        Cr     tau(   5) = (  -0.0815030   0.1411673   0.6425759  )
         6        Cr     tau(   6) = (   0.1630059   0.0000000   0.6425759  )
         7        N      tau(   7) = (   0.0000000   0.0000000   0.5261641  )
         8        N      tau(   8) = (   0.2500000   0.1443376   0.7485579  )
         9        N      tau(   9) = (   0.0000000   0.2886752   0.7485579  )
        10        Cr     tau(  10) = (  -0.1730001   0.2996450   1.3148727  )
        11        Cr     tau(  11) = (   0.3460003   0.0000000   1.3148727  )
        12        Cr     tau(  12) = (   0.0770029   0.1333729   1.3148745  )
        13        Cr     tau(  13) = (   0.1677092   0.2904808   1.0968932  )
        14        Cr     tau(  14) = (  -0.0822901   0.1425306   1.0968938  )
        15        Cr     tau(  15) = (   0.1645802   0.0000000   1.0968938  )
        16        N      tau(  16) = (   0.0000000   0.0000000   0.9808490  )
        17        N      tau(  17) = (   0.2500004   0.1443372   1.2145625  )
        18        N      tau(  18) = (  -0.0000005   0.2886753   1.2145625  )
        19        Cr     tau(  19) = (  -0.4181595   0.7242736   0.8673993  )
        20        Cr     tau(  20) = (   0.0863184   0.4330126   0.8674001  )
        21        Cr     tau(  21) = (  -0.1681593   0.5747652   0.8674001  )
        22        Cr     tau(  22) = (  -0.0815030   0.7248581   0.6425759  )
        23        Cr     tau(  23) = (  -0.3315030   0.5741800   0.6425759  )
        24        Cr     tau(  24) = (  -0.0869941   0.4330127   0.6425759  )
        25        N      tau(  25) = (  -0.2500000   0.4330127   0.5261641  )
        26        N      tau(  26) = (   0.0000000   0.5773503   0.7485581  )
        27        N      tau(  27) = (  -0.2500000   0.7216878   0.7485579  )
        28        Cr     tau(  28) = (  -0.4229971   0.7326525   1.3148745  )
        29        Cr     tau(  29) = (   0.0959968   0.4330121   1.3148749  )
        30        Cr     tau(  30) = (  -0.1729989   0.5663837   1.3148749  )
        31        Cr     tau(  31) = (  -0.0822898   0.7234940   1.0968932  )
        32        Cr     tau(  32) = (  -0.3322908   0.5755446   1.0968932  )
        33        Cr     tau(  33) = (  -0.0854193   0.4330133   1.0968932  )
        34        N      tau(  34) = (  -0.2500001   0.4330128   0.9808490  )
        35        N      tau(  35) = (   0.0000000   0.5773503   1.2145635  )
        36        N      tau(  36) = (  -0.2499996   0.7216882   1.2145625  )
        37        Cr     tau(  37) = (   0.3318407   0.2912602   0.8674001  )
        38        Cr     tau(  38) = (   0.8363191   0.0000000   0.8673993  )
        39        Cr     tau(  39) = (   0.5818409   0.1417524   0.8674001  )
        40        Cr     tau(  40) = (   0.6684970   0.2918454   0.6425759  )
        41        Cr     tau(  41) = (   0.4184970   0.1411673   0.6425759  )
        42        Cr     tau(  42) = (   0.6630059   0.0000000   0.6425759  )
        43        N      tau(  43) = (   0.5000000   0.0000000   0.5261641  )
        44        N      tau(  44) = (   0.7500000   0.1443376   0.7485579  )
        45        N      tau(  45) = (   0.5000000   0.2886751   0.7485581  )
        46        Cr     tau(  46) = (   0.3270011   0.2996417   1.3148749  )
        47        Cr     tau(  47) = (   0.8459942   0.0000000   1.3148745  )
        48        Cr     tau(  48) = (   0.5770021   0.1333704   1.3148749  )
        49        Cr     tau(  49) = (   0.6677091   0.2904819   1.0968932  )
        50        Cr     tau(  50) = (   0.4177102   0.1425314   1.0968932  )
        51        Cr     tau(  51) = (   0.6645817   0.0000000   1.0968932  )
        52        N      tau(  52) = (   0.5000001   0.0000000   0.9808490  )
        53        N      tau(  53) = (   0.7500001   0.1443381   1.2145625  )
        54        N      tau(  54) = (   0.5000000   0.2886751   1.2145635  )
        55        Cr     tau(  55) = (   0.0818409   0.7242730   0.8674001  )
        56        Cr     tau(  56) = (   0.5863184   0.4330128   0.8674001  )
        57        Cr     tau(  57) = (   0.3318409   0.5747653   0.8673998  )
        58        Cr     tau(  58) = (   0.4184970   0.7248581   0.6425759  )
        59        Cr     tau(  59) = (   0.1684970   0.5741800   0.6425759  )
        60        Cr     tau(  60) = (   0.4130059   0.4330127   0.6425759  )
        61        N      tau(  61) = (   0.2500000   0.4330127   0.5261641  )
        62        N      tau(  62) = (   0.5000000   0.5773502   0.7485579  )
        63        N      tau(  63) = (   0.2500000   0.7216878   0.7485579  )
        64        Cr     tau(  64) = (   0.0770021   0.7326550   1.3148749  )
        65        Cr     tau(  65) = (   0.5959968   0.4330133   1.3148749  )
        66        Cr     tau(  66) = (   0.3269999   0.5663804   1.3148727  )
        67        Cr     tau(  67) = (   0.4177099   0.7234948   1.0968938  )
        68        Cr     tau(  68) = (   0.1677091   0.5755435   1.0968932  )
        69        Cr     tau(  69) = (   0.4145807   0.4330121   1.0968932  )
        70        N      tau(  70) = (   0.2499999   0.4330126   0.9808490  )
        71        N      tau(  71) = (   0.4999995   0.5773501   1.2145625  )
        72        N      tau(  72) = (   0.2500001   0.7216873   1.2145625  )
        73        C      tau(  73) = (   0.2499993   0.4330114   1.5635696  )
        74        H      tau(  74) = (   0.2500069   0.4330070   1.6782712  )
        75        H      tau(  75) = (   0.3436502   0.3789420   1.5253274  )
        76        H      tau(  76) = (   0.1563432   0.3789420   1.5253399  )
        77        H      tau(  77) = (   0.2499967   0.5411546   1.5253399  )

     --------------------------------------------
     DFT-D3 Dispersion Correction (3-body terms):
     --------------------------------------------
       Reference C6 values for interpolation: 

         atom   Coordination number   C6
         H          0.912             6.05
         H          0.000            15.18
         C          0.000            98.23
         C          0.987            86.49
         C          1.998            58.72
         C          2.999            51.56
         C          3.984            36.41
         N          0.000            50.54
         N          0.994            44.25
         N          2.014            39.35
         N          2.990            31.16
         Cr         0.000          1381.48
         Cr         1.827           571.38
         Cr        10.619           306.69

       Values used:

         atom   Coordination number  R0_AB[au]  C6      C8
         Cr        12.627            3.252    306.69  28303.74
         Cr        12.627            3.252    306.69  28303.74
         Cr        12.627            3.252    306.69  28303.74
         Cr        10.143            3.252    306.69  28303.74
         Cr        10.143            3.252    306.69  28303.74
         Cr        10.143            3.252    306.69  28303.74
         N          3.022            2.478     31.29    690.36
         N          6.023            2.478     31.16    687.49
         N          6.023            2.478     31.16    687.49
         Cr         9.071            3.252    306.69  28303.74
         Cr         9.071            3.252    306.69  28303.74
         Cr         9.074            3.252    306.69  28303.74
         Cr        12.748            3.252    306.69  28303.74
         Cr        12.748            3.252    306.69  28303.74
         Cr        12.748            3.252    306.69  28303.74
         N          6.047            2.478     31.16    687.49
         N          6.032            2.478     31.16    687.49
         N          6.032            2.478     31.16    687.49
         Cr        12.627            3.252    306.69  28303.74
         Cr        12.627            3.252    306.69  28303.74
         Cr        12.627            3.252    306.69  28303.74
         Cr        10.143            3.252    306.69  28303.74
         Cr        10.143            3.252    306.69  28303.74
         Cr        10.143            3.252    306.69  28303.74
         N          3.022            2.478     31.29    690.36
         N          6.023            2.478     31.16    687.49
         N          6.023            2.478     31.16    687.49
         Cr         9.071            3.252    306.69  28303.74
         Cr         9.357            3.252    306.69  28303.74
         Cr         9.071            3.252    306.69  28303.74
         Cr        12.748            3.252    306.69  28303.74
         Cr        12.748            3.252    306.69  28303.74
         Cr        12.748            3.252    306.69  28303.74
         N          6.047            2.478     31.16    687.49
         N          6.032            2.478     31.16    687.49
         N          6.032            2.478     31.16    687.49
         Cr        12.627            3.252    306.69  28303.74
         Cr        12.627            3.252    306.69  28303.74
         Cr        12.627            3.252    306.69  28303.74
         Cr        10.143            3.252    306.69  28303.74
         Cr        10.143            3.252    306.69  28303.74
         Cr        10.143            3.252    306.69  28303.74
         N          3.022            2.478     31.29    690.36
         N          6.023            2.478     31.16    687.49
         N          6.023            2.478     31.16    687.49
         Cr         9.357            3.252    306.69  28303.74
         Cr         9.071            3.252    306.69  28303.74
         Cr         9.071            3.252    306.69  28303.74
         Cr        12.748            3.252    306.69  28303.74
         Cr        12.748            3.252    306.69  28303.74
         Cr        12.748            3.252    306.69  28303.74
         N          6.047            2.478     31.16    687.49
         N          6.032            2.478     31.16    687.49
         N          6.032            2.478     31.16    687.49
         Cr        12.627            3.252    306.69  28303.74
         Cr        12.627            3.252    306.69  28303.74
         Cr        12.627            3.252    306.69  28303.74
         Cr        10.143            3.252    306.69  28303.74
         Cr        10.143            3.252    306.69  28303.74
         Cr        10.143            3.252    306.69  28303.74
         N          3.022            2.478     31.29    690.36
         N          6.023            2.478     31.16    687.49
         N          6.023            2.478     31.16    687.49
         Cr         9.074            3.252    306.69  28303.74
         Cr         9.074            3.252    306.69  28303.74
         Cr         9.357            3.252    306.69  28303.74
         Cr        12.748            3.252    306.69  28303.74
         Cr        12.748            3.252    306.69  28303.74
         Cr        12.748            3.252    306.69  28303.74
         N          6.047            2.478     31.16    687.49
         N          6.032            2.478     31.16    687.49
         N          6.032            2.478     31.16    687.49
         C          4.412            2.750     36.42   1053.41
         H          0.997            2.062      6.18     74.75
         H          1.144            2.062      6.10     73.72
         H          1.144            2.062      6.10     73.72
         H          1.144            2.062      6.10     73.72

         Molecular C6 ( Ry / a.u.^6 ) =    974375.05


     number of k points=    10  Methfessel-Paxton smearing, width (Ry)=  0.0200
                       cart. coord. in units 2pi/alat
        k(    1) = (   0.0000000   0.0000000   0.0000000), wk =   0.1250000
        k(    2) = (   0.0000000   0.2886753   0.0000000), wk =   0.2500000
        k(    3) = (   0.0000000  -0.5773505   0.0000000), wk =   0.1250000
        k(    4) = (   0.2500000   0.4330129   0.0000000), wk =   0.2500000
        k(    5) = (  -0.2500000   0.1443376   0.0000000), wk =   0.2500000
        k(    6) = (   0.2500000   0.1443376   0.0000000), wk =   0.2500000
        k(    7) = (   0.5000000  -0.2886753   0.0000000), wk =   0.1250000
        k(    8) = (  -0.5000000  -0.2886753   0.0000000), wk =   0.1250000
        k(    9) = (  -0.2500000   0.4330129   0.0000000), wk =   0.2500000
        k(   10) = (   0.5000000  -0.0000000   0.0000000), wk =   0.2500000

     Dense  grid:  4502593 G-vectors     FFT dimensions: ( 180, 180, 375)

     Smooth grid:   866593 G-vectors     FFT dimensions: (  96,  96, 216)

     Estimated max dynamical RAM per process >     867.27 MB

     Estimated total dynamical RAM >      50.98 GB

     Initial potential from superposition of free atoms

     starting charge     799.9627, renormalised to     800.0000

     negative rho (up, down):  4.126E-04 0.000E+00
     Starting wfcs are  584 randomized atomic wfcs
     Checking if some PAW data can be deallocated... 

     total cpu time spent up to now is       20.0 secs

     Self-consistent Calculation

     iteration #  1     ecut=    70.00 Ry     beta= 0.20
     Davidson diagonalization with overlap
     ethr =  1.00E-02,  avg # of iterations =  2.8

     negative rho (up, down):  1.642E-04 0.000E+00

     total cpu time spent up to now is       65.1 secs

     total energy              =  -12610.67492789 Ry
     estimated scf accuracy    <      28.95749335 Ry

     iteration #  2     ecut=    70.00 Ry     beta= 0.20
     Davidson diagonalization with overlap
     ethr =  3.62E-03,  avg # of iterations =  6.5

     negative rho (up, down):  4.755E-04 0.000E+00

     total cpu time spent up to now is      119.8 secs

     total energy              =  -12600.27486521 Ry
     estimated scf accuracy    <     665.03139721 Ry

     iteration #  3     ecut=    70.00 Ry     beta= 0.20
     Davidson diagonalization with overlap
     ethr =  3.62E-03,  avg # of iterations =  3.1

     negative rho (up, down):  6.922E-04 0.000E+00

     total cpu time spent up to now is      161.0 secs

     total energy              =  -12608.85347211 Ry
     estimated scf accuracy    <     488.63277396 Ry

     iteration #  4     ecut=    70.00 Ry     beta= 0.20
     Davidson diagonalization with overlap
     ethr =  3.62E-03,  avg # of iterations =  1.9

     negative rho (up, down):  3.323E-04 0.000E+00

     total cpu time spent up to now is      200.3 secs

     total energy              =  -12614.88035064 Ry
     estimated scf accuracy    <      83.54360929 Ry

     iteration #  5     ecut=    70.00 Ry     beta= 0.20
     Davidson diagonalization with overlap
     ethr =  3.62E-03,  avg # of iterations =  1.4

     negative rho (up, down):  4.417E-04 0.000E+00

     total cpu time spent up to now is      237.1 secs

     total energy              =  -12615.31122206 Ry
     estimated scf accuracy    <      24.82592819 Ry

     iteration #  6     ecut=    70.00 Ry     beta= 0.20
     Davidson diagonalization with overlap
     ethr =  3.10E-03,  avg # of iterations =  1.1

     negative rho (up, down):  5.194E-04 0.000E+00

     total cpu time spent up to now is      272.6 secs

     total energy              =  -12616.18437960 Ry
     estimated scf accuracy    <       3.61307649 Ry

     iteration #  7     ecut=    70.00 Ry     beta= 0.20
     Davidson diagonalization with overlap
     ethr =  4.52E-04,  avg # of iterations = 13.5

     negative rho (up, down):  5.346E-04 0.000E+00

     total cpu time spent up to now is      324.0 secs

     total energy              =  -12616.34667606 Ry
     estimated scf accuracy    <       1.89425521 Ry

     iteration #  8     ecut=    70.00 Ry     beta= 0.20
     Davidson diagonalization with overlap
     ethr =  2.37E-04,  avg # of iterations =  2.2

     negative rho (up, down):  5.591E-04 0.000E+00

     total cpu time spent up to now is      363.6 secs

     total energy              =  -12616.36408270 Ry
     estimated scf accuracy    <       0.95678353 Ry

     iteration #  9     ecut=    70.00 Ry     beta= 0.20
     Davidson diagonalization with overlap
     ethr =  1.20E-04,  avg # of iterations =  3.8

     negative rho (up, down):  4.399E-04 0.000E+00

     total cpu time spent up to now is      405.1 secs

     total energy              =  -12616.36332631 Ry
     estimated scf accuracy    <       0.55361801 Ry

     iteration # 10     ecut=    70.00 Ry     beta= 0.20
     Davidson diagonalization with overlap
     c_bands:  1 eigenvalues not converged
     ethr =  6.92E-05,  avg # of iterations =  8.9

     negative rho (up, down):  4.131E-04 0.000E+00

     total cpu time spent up to now is      451.3 secs

     total energy              =  -12616.35955852 Ry
     estimated scf accuracy    <       0.48470269 Ry

     iteration # 11     ecut=    70.00 Ry     beta= 0.20
     Davidson diagonalization with overlap
     ethr =  6.06E-05,  avg # of iterations =  3.6

     negative rho (up, down):  4.260E-04 0.000E+00

     total cpu time spent up to now is      493.0 secs

     total energy              =  -12616.37107489 Ry
     estimated scf accuracy    <       0.25521809 Ry

     iteration # 12     ecut=    70.00 Ry     beta= 0.20
     Davidson diagonalization with overlap
     ethr =  3.19E-05,  avg # of iterations = 13.2

     negative rho (up, down):  2.998E-04 0.000E+00

     total cpu time spent up to now is      544.4 secs

     total energy              =  -12616.36586116 Ry
     estimated scf accuracy    <       0.51811028 Ry

     iteration # 13     ecut=    70.00 Ry     beta= 0.20
     Davidson diagonalization with overlap
     ethr =  3.19E-05,  avg # of iterations =  2.1

     negative rho (up, down):  2.602E-04 0.000E+00

     total cpu time spent up to now is      582.1 secs

     total energy              =  -12616.37402051 Ry
     estimated scf accuracy    <       0.14677177 Ry

     iteration # 14     ecut=    70.00 Ry     beta= 0.20
     Davidson diagonalization with overlap
     ethr =  1.83E-05,  avg # of iterations =  2.2

     negative rho (up, down):  2.241E-04 0.000E+00

     total cpu time spent up to now is      620.4 secs

     total energy              =  -12616.37492809 Ry
     estimated scf accuracy    <       0.06633154 Ry

     iteration # 15     ecut=    70.00 Ry     beta= 0.20
     Davidson diagonalization with overlap
     ethr =  8.29E-06,  avg # of iterations =  7.9

     negative rho (up, down):  2.081E-04 0.000E+00

     total cpu time spent up to now is      666.1 secs

     total energy              =  -12616.37335931 Ry
     estimated scf accuracy    <       0.32756497 Ry

     iteration # 16     ecut=    70.00 Ry     beta= 0.20
     Davidson diagonalization with overlap
     ethr =  8.29E-06,  avg # of iterations =  1.1

     negative rho (up, down):  1.983E-04 0.000E+00

     total cpu time spent up to now is      701.7 secs

     total energy              =  -12616.37757915 Ry
     estimated scf accuracy    <       0.01809021 Ry

     iteration # 17     ecut=    70.00 Ry     beta= 0.20
     Davidson diagonalization with overlap
     ethr =  2.26E-06,  avg # of iterations = 13.0

     negative rho (up, down):  2.001E-04 0.000E+00

     total cpu time spent up to now is      751.6 secs

     total energy              =  -12616.37761665 Ry
     estimated scf accuracy    <       0.02444432 Ry

     iteration # 18     ecut=    70.00 Ry     beta= 0.20
     Davidson diagonalization with overlap
     ethr =  2.26E-06,  avg # of iterations =  1.9

     negative rho (up, down):  2.018E-04 0.000E+00

     total cpu time spent up to now is      790.8 secs

     total energy              =  -12616.37771724 Ry
     estimated scf accuracy    <       0.04328375 Ry

     iteration # 19     ecut=    70.00 Ry     beta= 0.20
     Davidson diagonalization with overlap
     ethr =  2.26E-06,  avg # of iterations =  1.4

     negative rho (up, down):  2.041E-04 0.000E+00

     total cpu time spent up to now is      829.4 secs

     total energy              =  -12616.37877775 Ry
     estimated scf accuracy    <       0.00552374 Ry

     iteration # 20     ecut=    70.00 Ry     beta= 0.20
     Davidson diagonalization with overlap
     ethr =  6.90E-07,  avg # of iterations =  1.9

     negative rho (up, down):  2.071E-04 0.000E+00

     total cpu time spent up to now is      868.9 secs

     total energy              =  -12616.37895049 Ry
     estimated scf accuracy    <       0.00174583 Ry

     iteration # 21     ecut=    70.00 Ry     beta= 0.20
     Davidson diagonalization with overlap
     ethr =  2.18E-07,  avg # of iterations =  4.7

     negative rho (up, down):  2.099E-04 0.000E+00

     total cpu time spent up to now is      911.6 secs

     total energy              =  -12616.37899197 Ry
     estimated scf accuracy    <       0.00456871 Ry

     iteration # 22     ecut=    70.00 Ry     beta= 0.20
     Davidson diagonalization with overlap
     ethr =  2.18E-07,  avg # of iterations =  2.0

     negative rho (up, down):  2.145E-04 0.000E+00

     total cpu time spent up to now is      951.0 secs

     total energy              =  -12616.37908363 Ry
     estimated scf accuracy    <       0.00342834 Ry

     iteration # 23     ecut=    70.00 Ry     beta= 0.20
     Davidson diagonalization with overlap
     ethr =  2.18E-07,  avg # of iterations =  1.1

     negative rho (up, down):  2.160E-04 0.000E+00

     total cpu time spent up to now is      987.5 secs

     total energy              =  -12616.37918419 Ry
     estimated scf accuracy    <       0.00095642 Ry

     iteration # 24     ecut=    70.00 Ry     beta= 0.20
     Davidson diagonalization with overlap
     ethr =  1.20E-07,  avg # of iterations =  1.9

     negative rho (up, down):  2.153E-04 0.000E+00

     total cpu time spent up to now is     1026.8 secs

     total energy              =  -12616.37919749 Ry
     estimated scf accuracy    <       0.00157866 Ry

     iteration # 25     ecut=    70.00 Ry     beta= 0.20
     Davidson diagonalization with overlap
     ethr =  1.20E-07,  avg # of iterations =  1.0

     negative rho (up, down):  2.154E-04 0.000E+00

     total cpu time spent up to now is     1061.2 secs

     total energy              =  -12616.37922289 Ry
     estimated scf accuracy    <       0.00041174 Ry

     iteration # 26     ecut=    70.00 Ry     beta= 0.20
     Davidson diagonalization with overlap
     ethr =  5.15E-08,  avg # of iterations =  1.9

     negative rho (up, down):  2.146E-04 0.000E+00

     total cpu time spent up to now is     1100.6 secs

     total energy              =  -12616.37923368 Ry
     estimated scf accuracy    <       0.00011703 Ry

     iteration # 27     ecut=    70.00 Ry     beta= 0.20
     Davidson diagonalization with overlap
     ethr =  1.46E-08,  avg # of iterations =  5.9

     negative rho (up, down):  2.139E-04 0.000E+00

     total cpu time spent up to now is     1144.1 secs

     total energy              =  -12616.37922977 Ry
     estimated scf accuracy    <       0.00036497 Ry

     iteration # 28     ecut=    70.00 Ry     beta= 0.20
     Davidson diagonalization with overlap
     ethr =  1.46E-08,  avg # of iterations =  2.0

     negative rho (up, down):  2.143E-04 0.000E+00

     total cpu time spent up to now is     1183.3 secs

     total energy              =  -12616.37923408 Ry
     estimated scf accuracy    <       0.00043039 Ry

     iteration # 29     ecut=    70.00 Ry     beta= 0.20
     Davidson diagonalization with overlap
     ethr =  1.46E-08,  avg # of iterations =  1.3

     negative rho (up, down):  2.143E-04 0.000E+00

     total cpu time spent up to now is     1220.6 secs

     total energy              =  -12616.37924199 Ry
     estimated scf accuracy    <       0.00012459 Ry

     iteration # 30     ecut=    70.00 Ry     beta= 0.20
     Davidson diagonalization with overlap
     ethr =  1.46E-08,  avg # of iterations =  1.1

     negative rho (up, down):  2.139E-04 0.000E+00

     total cpu time spent up to now is     1256.3 secs

     total energy              =  -12616.37924362 Ry
     estimated scf accuracy    <       0.00003427 Ry

     iteration # 31     ecut=    70.00 Ry     beta= 0.20
     Davidson diagonalization with overlap
     ethr =  4.28E-09,  avg # of iterations =  2.3

     negative rho (up, down):  2.136E-04 0.000E+00

     total cpu time spent up to now is     1295.4 secs

     total energy              =  -12616.37924303 Ry
     estimated scf accuracy    <       0.00004545 Ry

     iteration # 32     ecut=    70.00 Ry     beta= 0.20
     Davidson diagonalization with overlap
     ethr =  4.28E-09,  avg # of iterations =  1.0

     negative rho (up, down):  2.133E-04 0.000E+00

     total cpu time spent up to now is     1330.0 secs

     total energy              =  -12616.37924355 Ry
     estimated scf accuracy    <       0.00000807 Ry

     iteration # 33     ecut=    70.00 Ry     beta= 0.20
     Davidson diagonalization with overlap
     ethr =  1.01E-09,  avg # of iterations =  5.5

     negative rho (up, down):  2.127E-04 0.000E+00

     total cpu time spent up to now is     1372.7 secs

     total energy              =  -12616.37924228 Ry
     estimated scf accuracy    <       0.00002145 Ry

     iteration # 34     ecut=    70.00 Ry     beta= 0.20
     Davidson diagonalization with overlap
     ethr =  1.01E-09,  avg # of iterations =  1.2

     negative rho (up, down):  2.127E-04 0.000E+00

     total cpu time spent up to now is     1409.5 secs

     total energy              =  -12616.37924239 Ry
     estimated scf accuracy    <       0.00002240 Ry

     iteration # 35     ecut=    70.00 Ry     beta= 0.20
     Davidson diagonalization with overlap
     ethr =  1.01E-09,  avg # of iterations =  1.0

     negative rho (up, down):  2.126E-04 0.000E+00

     total cpu time spent up to now is     1444.0 secs

     total energy              =  -12616.37924271 Ry
     estimated scf accuracy    <       0.00000842 Ry

     iteration # 36     ecut=    70.00 Ry     beta= 0.20
     Davidson diagonalization with overlap
     ethr =  1.01E-09,  avg # of iterations =  1.0

     negative rho (up, down):  2.125E-04 0.000E+00

     total cpu time spent up to now is     1478.4 secs

     total energy              =  -12616.37924263 Ry
     estimated scf accuracy    <       0.00000489 Ry

     iteration # 37     ecut=    70.00 Ry     beta= 0.20
     Davidson diagonalization with overlap
     ethr =  6.12E-10,  avg # of iterations =  1.1

     negative rho (up, down):  2.124E-04 0.000E+00

     total cpu time spent up to now is     1514.1 secs

     total energy              =  -12616.37924252 Ry
     estimated scf accuracy    <       0.00000470 Ry

     iteration # 38     ecut=    70.00 Ry     beta= 0.20
     Davidson diagonalization with overlap
     ethr =  5.88E-10,  avg # of iterations =  1.0

     negative rho (up, down):  2.123E-04 0.000E+00

     total cpu time spent up to now is     1548.8 secs

     total energy              =  -12616.37924259 Ry
     estimated scf accuracy    <       0.00000194 Ry

     iteration # 39     ecut=    70.00 Ry     beta= 0.20
     Davidson diagonalization with overlap
     ethr =  2.42E-10,  avg # of iterations =  1.0

     negative rho (up, down):  2.123E-04 0.000E+00

     total cpu time spent up to now is     1583.2 secs

     total energy              =  -12616.37924258 Ry
     estimated scf accuracy    <       0.00000308 Ry

     iteration # 40     ecut=    70.00 Ry     beta= 0.20
     Davidson diagonalization with overlap
     ethr =  2.42E-10,  avg # of iterations =  1.0

     negative rho (up, down):  2.122E-04 0.000E+00

     total cpu time spent up to now is     1617.8 secs

     total energy              =  -12616.37924257 Ry
     estimated scf accuracy    <       0.00000187 Ry

     iteration # 41     ecut=    70.00 Ry     beta= 0.20
     Davidson diagonalization with overlap
     ethr =  2.34E-10,  avg # of iterations =  1.0

     negative rho (up, down):  2.121E-04 0.000E+00

     total cpu time spent up to now is     1652.1 secs

     total energy              =  -12616.37924260 Ry
     estimated scf accuracy    <       0.00000051 Ry

     iteration # 42     ecut=    70.00 Ry     beta= 0.20
     Davidson diagonalization with overlap
     ethr =  6.37E-11,  avg # of iterations =  1.3

     negative rho (up, down):  2.121E-04 0.000E+00

     total cpu time spent up to now is     1688.3 secs

     total energy              =  -12616.37924261 Ry
     estimated scf accuracy    <       0.00000025 Ry

     iteration # 43     ecut=    70.00 Ry     beta= 0.20
     Davidson diagonalization with overlap
     ethr =  3.06E-11,  avg # of iterations =  2.0

     negative rho (up, down):  2.121E-04 0.000E+00

     total cpu time spent up to now is     1727.8 secs

     total energy              =  -12616.37924261 Ry
     estimated scf accuracy    <       0.00000053 Ry

     iteration # 44     ecut=    70.00 Ry     beta= 0.20
     Davidson diagonalization with overlap
     ethr =  3.06E-11,  avg # of iterations =  2.1

     negative rho (up, down):  2.121E-04 0.000E+00

     total cpu time spent up to now is     1766.9 secs

     total energy              =  -12616.37924262 Ry
     estimated scf accuracy    <       0.00000024 Ry

     iteration # 45     ecut=    70.00 Ry     beta= 0.20
     Davidson diagonalization with overlap
     ethr =  2.97E-11,  avg # of iterations =  1.0

     negative rho (up, down):  2.121E-04 0.000E+00

     total cpu time spent up to now is     1801.4 secs

     total energy              =  -12616.37924262 Ry
     estimated scf accuracy    <       0.00000006 Ry

     iteration # 46     ecut=    70.00 Ry     beta= 0.20
     Davidson diagonalization with overlap
     ethr =  8.12E-12,  avg # of iterations =  5.0

     negative rho (up, down):  2.120E-04 0.000E+00

     total cpu time spent up to now is     1842.8 secs

     total energy              =  -12616.37924262 Ry
     estimated scf accuracy    <       0.00000097 Ry

     iteration # 47     ecut=    70.00 Ry     beta= 0.20
     Davidson diagonalization with overlap
     ethr =  8.12E-12,  avg # of iterations =  1.9

     negative rho (up, down):  2.120E-04 0.000E+00

     total cpu time spent up to now is     1882.1 secs

     total energy              =  -12616.37924262 Ry
     estimated scf accuracy    <       0.00000016 Ry

     iteration # 48     ecut=    70.00 Ry     beta= 0.20
     Davidson diagonalization with overlap
     ethr =  8.12E-12,  avg # of iterations =  1.0

     negative rho (up, down):  2.120E-04 0.000E+00

     total cpu time spent up to now is     1916.6 secs

     total energy              =  -12616.37924263 Ry
     estimated scf accuracy    <       0.00000003 Ry

     iteration # 49     ecut=    70.00 Ry     beta= 0.20
     Davidson diagonalization with overlap
     ethr =  4.02E-12,  avg # of iterations =  2.0

     negative rho (up, down):  2.120E-04 0.000E+00

     total cpu time spent up to now is     1955.9 secs

     total energy              =  -12616.37924263 Ry
     estimated scf accuracy    <       0.00000006 Ry

     iteration # 50     ecut=    70.00 Ry     beta= 0.20
     Davidson diagonalization with overlap
     ethr =  4.02E-12,  avg # of iterations =  1.2

     negative rho (up, down):  2.120E-04 0.000E+00

     total cpu time spent up to now is     1991.6 secs

     total energy              =  -12616.37924263 Ry
     estimated scf accuracy    <       0.00000006 Ry

     iteration # 51     ecut=    70.00 Ry     beta= 0.20
     Davidson diagonalization with overlap
     ethr =  4.02E-12,  avg # of iterations =  1.0

     negative rho (up, down):  2.120E-04 0.000E+00

     total cpu time spent up to now is     2026.0 secs

     total energy              =  -12616.37924263 Ry
     estimated scf accuracy    <       0.00000002 Ry

     iteration # 52     ecut=    70.00 Ry     beta= 0.20
     Davidson diagonalization with overlap
     ethr =  2.24E-12,  avg # of iterations =  1.1

     negative rho (up, down):  2.120E-04 0.000E+00

     total cpu time spent up to now is     2061.3 secs

     End of self-consistent calculation

          k = 0.0000 0.0000 0.0000 (108303 PWs)   bands (ev):

   -66.9694 -66.9293 -66.9284 -66.9284 -66.9208 -66.9208 -66.9189 -66.9187
   -66.8945 -66.8941 -66.8941 -66.8917 -66.8917 -66.8911 -66.8871 -66.8871
   -66.8850 -66.8827 -66.8827 -66.8755 -66.8725 -66.8725 -66.8697 -66.8697
   -66.7149 -66.6856 -66.6856 -66.6854 -66.6793 -66.6781 -66.6781 -66.6621
   -66.6621 -66.6610 -66.6553 -66.6553 -66.6469 -66.6004 -66.5999 -66.5999
   -66.5875 -66.5875 -66.5501 -66.5500 -66.5499 -66.5469 -66.5365 -66.5365
   -38.7737 -38.7471 -38.7471 -38.7423 -38.6444 -38.6444 -38.6442 -38.6051
   -38.6051 -38.5890 -38.5890 -38.5861 -38.5659 -38.5355 -38.5355 -38.5285
   -38.5104 -38.5104 -38.5079 -38.4883 -38.4784 -38.4783 -38.4462 -38.4462
   -38.4422 -38.4422 -38.4415 -38.4342 -38.3595 -38.3478 -38.3439 -38.3439
   -38.3402 -38.3392 -38.3372 -38.3372 -38.3323 -38.3323 -38.2982 -38.2969
   -38.2969 -38.2805 -38.2805 -38.2793 -38.2791 -38.2400 -38.2378 -38.2354
   -38.2354 -38.2326 -38.2326 -38.2294 -38.2294 -38.2271 -38.2111 -38.2111
   -38.2071 -38.2071 -38.2031 -38.2031 -38.2030 -38.1976 -38.1976 -38.1976
   -38.1884 -38.1844 -38.1844 -38.1802 -38.1716 -38.1716 -38.1675 -38.1437
   -38.1437 -38.1312 -38.1182 -38.1182 -38.1180 -38.1099 -38.1099 -38.1046
   -38.0990 -38.0900 -38.0899 -38.0822 -38.0705 -38.0705 -38.0619 -38.0615
   -38.0615 -38.0462 -38.0462 -38.0252 -38.0236 -38.0185 -38.0185 -38.0130
   -38.0078 -38.0078 -38.0000 -37.9999 -37.9956 -37.9718 -37.9711 -37.9711
   -37.9398 -37.9398 -37.9311 -37.9311 -37.9287 -37.9237 -37.9236 -37.9201
   -37.9123 -37.9123 -37.9096 -37.8990 -37.8949 -37.8853 -37.8853 -37.8789
   -37.8789 -37.8674 -37.8674 -37.8674 -37.8338 -37.8329 -37.8329 -37.8320
   -37.8320 -37.8315 -37.8032 -37.8032 -37.8029 -37.7825 -37.7727 -37.7727
   -37.6739 -37.6739 -37.6576 -37.6446 -37.6446 -37.6428 -37.6202 -37.6202
   -12.4706 -12.0020 -11.7673 -11.7673 -11.7650 -11.6234 -11.6234 -11.6139
   -11.5959 -11.5958 -11.5905 -11.3145 -11.3145 -11.3081 -11.2356 -11.2040
   -11.2039 -11.1987 -10.9739 -10.9488  -9.4940  -8.6791  -8.6791  -8.6787
    -8.6213  -2.9761  -2.9739  -2.9739  -2.7620  -2.7313  -2.7313  -2.5536
    -2.5341  -2.5341  -2.5336  -2.5160  -2.5160  -2.4500  -2.3992  -2.3752
    -2.3752  -2.2984  -2.2875  -2.2875  -2.2219  -2.2218  -1.9947  -1.9947
    -1.9155  -1.7273  -1.7273  -1.6766  -1.5477  -1.5445  -1.5445  -1.4546
    -1.4546  -1.4525  -1.3924  -1.3924  -1.3904  -1.3092  -1.3092  -1.3062
    -1.2897  -1.2519  -1.2519  -1.1981  -1.1869  -1.1869  -1.0576  -1.0576
    -0.9529  -0.8885  -0.8805  -0.8805  -0.8667  -0.8667  -0.8242  -0.7953
    -0.7953  -0.7904  -0.6558  -0.6485  -0.6485  -0.4070  -0.4023  -0.4023
     0.6857   1.2567   1.2573   1.2574   1.4997   1.5000   1.5001   1.5728
     1.5937   1.5937   1.6132   1.6150   1.6150   1.6358   1.6362   1.6362
     1.8010   1.8109   1.8109   2.0948   2.0970   2.0970   2.2221   2.2221
     2.2276   2.2537   2.3643   2.3821   2.3821   2.4682   2.4682   2.4770
     2.4842   2.4842   2.4847   2.5442   2.5486   2.5486   2.5647   2.7263
     2.7263   2.8244   2.8339   2.8339   3.1872   3.1872   3.2290   3.3195
     3.3195   3.3814   3.3814   3.3836   3.3950   3.3950   3.3969   3.5074
     3.5074   3.5261   3.5324   3.5787   3.5788   3.6761   3.6979   3.6979
     3.7171   3.7240   3.7240   3.7569   3.7569   3.7623   3.7668   3.8547
     3.8547   3.8631   4.0054   4.0054   4.0640   4.1664   4.1664   4.1781
     4.1896   4.1896   4.3144   4.3272   4.3272   4.3433   4.3585   4.3802
     4.3802   4.4431   4.4527   4.4527   4.4642   4.5131   4.5278   4.5278
     4.5828   4.5828   4.6572   4.7375   4.7376   4.7672   4.7707   4.8219
     4.8219   4.8712   4.8712   4.9109   4.9206   4.9206   4.9285   4.9874
     4.9890   4.9890   5.0495   5.0495   5.1562   5.1663   5.1663   5.1690
     5.2453   5.2453   5.4200   5.4247   5.4247   5.4273   5.5357   5.5357
     5.5827   5.5827   5.5863   5.6023   5.6023   5.6038   5.7292   5.7292
     5.7326   5.7410   5.7523   5.7523   5.7630   5.7630   5.7846   5.7847
     5.8453   5.8732   5.8977   5.8977   5.9001   5.9029   5.9029   5.9419
     5.9419   5.9520   6.0221   6.0222   6.0294   6.0404   6.0404   6.0450
     6.0450   6.0657   6.1032   6.1033   6.1044   6.1352   6.1352   6.1600
     6.2386   6.2386   6.2462   6.2485   6.2485   6.2952   6.2952   6.3055
     6.3103   6.3103   6.3494   6.3518   6.3518   6.4002   6.4002   6.4402
     6.5649   6.6064   6.6064   6.6083   6.6603   6.6603   6.6876   6.6904
     6.6904   6.7471   6.7531   6.7533   6.7602   6.7603   6.8170   6.8673

          k = 0.0000 0.2887 0.0000 (108355 PWs)   bands (ev):

   -66.9659 -66.9418 -66.9327 -66.9318 -66.9164 -66.9146 -66.9135 -66.9076
   -66.8999 -66.8971 -66.8966 -66.8946 -66.8929 -66.8925 -66.8858 -66.8851
   -66.8836 -66.8822 -66.8793 -66.8762 -66.8736 -66.8724 -66.8703 -66.8701
   -66.7123 -66.6945 -66.6881 -66.6875 -66.6750 -66.6741 -66.6703 -66.6638
   -66.6632 -66.6608 -66.6568 -66.6563 -66.6466 -66.6038 -66.6005 -66.5959
   -66.5890 -66.5868 -66.5503 -66.5497 -66.5476 -66.5469 -66.5379 -66.5369
   -38.7704 -38.7506 -38.7430 -38.7394 -38.6401 -38.6396 -38.6381 -38.6128
   -38.6043 -38.5953 -38.5951 -38.5914 -38.5672 -38.5513 -38.5387 -38.5328
   -38.5076 -38.5033 -38.4949 -38.4899 -38.4802 -38.4791 -38.4744 -38.4519
   -38.4366 -38.4354 -38.4342 -38.4124 -38.3540 -38.3523 -38.3471 -38.3420
   -38.3393 -38.3344 -38.3308 -38.3305 -38.3260 -38.3191 -38.3019 -38.3009
   -38.2973 -38.2909 -38.2842 -38.2823 -38.2739 -38.2529 -38.2515 -38.2378
   -38.2357 -38.2338 -38.2334 -38.2333 -38.2304 -38.2293 -38.2204 -38.2166
   -38.2146 -38.2130 -38.2090 -38.2025 -38.2014 -38.1973 -38.1912 -38.1880
   -38.1834 -38.1820 -38.1805 -38.1681 -38.1649 -38.1622 -38.1596 -38.1442
   -38.1433 -38.1290 -38.1277 -38.1231 -38.1217 -38.1098 -38.1091 -38.1031
   -38.0967 -38.0931 -38.0927 -38.0794 -38.0792 -38.0717 -38.0662 -38.0615
   -38.0529 -38.0509 -38.0393 -38.0275 -38.0223 -38.0193 -38.0169 -38.0096
   -38.0069 -38.0012 -37.9972 -37.9942 -37.9916 -37.9782 -37.9763 -37.9735
   -37.9434 -37.9402 -37.9362 -37.9296 -37.9281 -37.9273 -37.9192 -37.9185
   -37.9124 -37.9093 -37.9075 -37.8953 -37.8926 -37.8864 -37.8841 -37.8805
   -37.8792 -37.8699 -37.8698 -37.8659 -37.8395 -37.8357 -37.8353 -37.8269
   -37.8262 -37.8235 -37.8133 -37.8057 -37.8012 -37.7815 -37.7737 -37.7735
   -37.6726 -37.6708 -37.6553 -37.6468 -37.6430 -37.6411 -37.6272 -37.6214
   -12.4069 -11.9795 -11.9596 -11.8235 -11.8212 -11.6923 -11.6071 -11.6020
   -11.5307 -11.5271 -11.4492 -11.3061 -11.3015 -11.2547 -11.2364 -11.2336
   -11.2242 -11.1701 -11.0071 -10.9836  -9.4941  -8.6807  -8.6804  -8.6692
    -8.6284  -2.9470  -2.9417  -2.9019  -2.7886  -2.7179  -2.7061  -2.6908
    -2.6772  -2.6737  -2.5664  -2.5576  -2.4257  -2.3726  -2.3376  -2.3204
    -2.3166  -2.2728  -2.2226  -2.2020  -2.1780  -2.1312  -2.0082  -2.0011
    -1.9388  -1.8755  -1.7356  -1.7197  -1.6683  -1.5896  -1.5817  -1.5340
    -1.4494  -1.4461  -1.3942  -1.3881  -1.3587  -1.3467  -1.3294  -1.2910
    -1.2865  -1.2724  -1.2242  -1.2181  -1.2042  -1.0915  -1.0492  -1.0320
    -0.9846  -0.9245  -0.8762  -0.8616  -0.8574  -0.8052  -0.8027  -0.7992
    -0.7737  -0.7455  -0.6912  -0.6227  -0.6202  -0.4751  -0.4315  -0.4287
     0.8076   1.2185   1.2501   1.2505   1.4894   1.4896   1.4983   1.5019
     1.5653   1.5841   1.5854   1.6045   1.6647   1.7028   1.7063   1.7181
     1.8171   1.8226   1.8649   2.1044   2.1055   2.1483   2.1962   2.2012
     2.2539   2.3056   2.3376   2.3437   2.3664   2.4645   2.4678   2.4825
     2.4921   2.4948   2.5581   2.5866   2.5907   2.6053   2.6293   2.6584
     2.7620   2.8396   2.8410   2.9047   3.0619   3.1076   3.1714   3.2382
     3.2410   3.2742   3.2797   3.3077   3.4033   3.4059   3.4263   3.4371
     3.4388   3.4762   3.5533   3.6098   3.6355   3.6518   3.6761   3.7146
     3.7400   3.7464   3.7563   3.7718   3.8110   3.8200   3.8253   3.9042
     4.0018   4.0264   4.0490   4.0653   4.0721   4.0849   4.0997   4.1833
     4.2084   4.2214   4.2763   4.2872   4.3166   4.3280   4.3412   4.3470
     4.3600   4.3938   4.4133   4.4201   4.4445   4.4978   4.5232   4.5333
     4.5362   4.6040   4.6147   4.6866   4.7296   4.7660   4.7897   4.8021
     4.8214   4.8389   4.8776   4.8919   4.9426   4.9678   4.9807   4.9849
     5.0164   5.0371   5.0446   5.1012   5.1253   5.1750   5.1882   5.2195
     5.2348   5.2676   5.3362   5.3576   5.3741   5.3977   5.4590   5.4931
     5.5066   5.5113   5.5119   5.5650   5.5935   5.6001   5.6070   5.6137
     5.6208   5.7204   5.7327   5.7779   5.7909   5.7962   5.7972   5.8037
     5.8342   5.8525   5.8560   5.8738   5.8866   5.9232   5.9314   5.9340
     5.9433   5.9746   5.9868   6.0068   6.0123   6.0211   6.0549   6.0570
     6.0705   6.0767   6.0806   6.0885   6.1024   6.1058   6.1370   6.2207
     6.2385   6.2473   6.2680   6.2873   6.2920   6.2957   6.2972   6.3498
     6.3554   6.3585   6.3603   6.4093   6.4383   6.4454   6.4557   6.4976
     6.5058   6.5187   6.5768   6.5842   6.5924   6.6008   6.6877   6.6984
     6.7052   6.7296   6.7397   6.7590   6.7757   6.8033   6.8403   6.8448

          k = 0.0000-0.5774 0.0000 (108310 PWs)   bands (ev):

   -66.9566 -66.9556 -66.9348 -66.9339 -66.9102 -66.9092 -66.9068 -66.9055
   -66.9032 -66.9021 -66.8966 -66.8942 -66.8942 -66.8939 -66.8897 -66.8884
   -66.8800 -66.8784 -66.8776 -66.8766 -66.8742 -66.8724 -66.8718 -66.8707
   -66.7052 -66.7048 -66.6896 -66.6889 -66.6702 -66.6690 -66.6672 -66.6668
   -66.6622 -66.6616 -66.6590 -66.6584 -66.6462 -66.6053 -66.6010 -66.5927
   -66.5917 -66.5862 -66.5504 -66.5487 -66.5483 -66.5434 -66.5408 -66.5372
   -38.7618 -38.7603 -38.7386 -38.7354 -38.6351 -38.6302 -38.6296 -38.6259
   -38.6069 -38.6015 -38.5983 -38.5971 -38.5662 -38.5642 -38.5409 -38.5347
   -38.5053 -38.4987 -38.4948 -38.4917 -38.4888 -38.4831 -38.4677 -38.4637
   -38.4297 -38.4276 -38.4172 -38.4153 -38.3633 -38.3614 -38.3385 -38.3370
   -38.3322 -38.3301 -38.3232 -38.3226 -38.3147 -38.3100 -38.3007 -38.2994
   -38.2951 -38.2948 -38.2918 -38.2844 -38.2740 -38.2728 -38.2686 -38.2391
   -38.2374 -38.2369 -38.2348 -38.2338 -38.2333 -38.2292 -38.2281 -38.2196
   -38.2174 -38.2154 -38.2146 -38.2076 -38.2039 -38.2022 -38.1851 -38.1806
   -38.1793 -38.1732 -38.1724 -38.1607 -38.1551 -38.1525 -38.1515 -38.1473
   -38.1459 -38.1384 -38.1333 -38.1327 -38.1103 -38.1078 -38.1069 -38.0995
   -38.0971 -38.0969 -38.0934 -38.0855 -38.0840 -38.0818 -38.0684 -38.0615
   -38.0497 -38.0480 -38.0313 -38.0256 -38.0240 -38.0186 -38.0150 -38.0143
   -38.0057 -38.0047 -37.9939 -37.9878 -37.9877 -37.9819 -37.9664 -37.9637
   -37.9537 -37.9479 -37.9417 -37.9363 -37.9268 -37.9250 -37.9207 -37.9137
   -37.9091 -37.9081 -37.9029 -37.8991 -37.8898 -37.8863 -37.8817 -37.8800
   -37.8731 -37.8724 -37.8720 -37.8712 -37.8373 -37.8366 -37.8331 -37.8326
   -37.8229 -37.8221 -37.8134 -37.8129 -37.7997 -37.7787 -37.7765 -37.7743
   -37.6713 -37.6624 -37.6579 -37.6469 -37.6425 -37.6380 -37.6363 -37.6229
   -12.2307 -12.2289 -11.8583 -11.8561 -11.8459 -11.8424 -11.6146 -11.6100
   -11.4425 -11.4396 -11.3163 -11.3160 -11.3078 -11.3007 -11.2788 -11.2779
   -11.0995 -11.0968 -11.0765 -11.0762  -9.4941  -8.6823  -8.6820  -8.6476
    -8.6473  -2.9181  -2.9053  -2.8151  -2.8107  -2.7511  -2.7487  -2.7446
    -2.7395  -2.6220  -2.6174  -2.5031  -2.5005  -2.3621  -2.3375  -2.2887
    -2.2827  -2.2335  -2.2197  -2.1323  -2.0970  -2.0697  -2.0248  -1.9937
    -1.9184  -1.9104  -1.8065  -1.7985  -1.6632  -1.6537  -1.6088  -1.5992
    -1.5361  -1.5068  -1.4134  -1.4082  -1.4047  -1.3850  -1.2806  -1.2759
    -1.2343  -1.2323  -1.2196  -1.2141  -1.0996  -1.0979  -1.0205  -1.0198
    -1.0013  -0.9950  -0.8729  -0.8708  -0.8254  -0.8228  -0.8052  -0.7965
    -0.7021  -0.7014  -0.6400  -0.6373  -0.5936  -0.5895  -0.4553  -0.4523
     1.0506   1.0536   1.2380   1.2384   1.4665   1.4693   1.4894   1.4901
     1.5654   1.5656   1.5815   1.5819   1.7206   1.7239   1.7310   1.7381
     1.9568   1.9631   1.9640   1.9672   2.1391   2.1416   2.1725   2.1792
     2.2667   2.2704   2.4010   2.4039   2.4246   2.4257   2.4547   2.4574
     2.4939   2.4974   2.5052   2.5102   2.6132   2.6214   2.7895   2.7909
     2.8373   2.8447   2.8584   2.8684   3.0574   3.0620   3.0790   3.0806
     3.1501   3.1508   3.2442   3.2528   3.3674   3.3688   3.4275   3.4334
     3.4583   3.4670   3.5602   3.5627   3.6367   3.6675   3.7027   3.7053
     3.7653   3.7758   3.8424   3.8581   3.9067   3.9132   3.9364   3.9526
     3.9720   3.9807   4.0117   4.0308   4.0325   4.0454   4.1601   4.1716
     4.1927   4.2041   4.2759   4.2831   4.3166   4.3301   4.3618   4.3871
     4.3935   4.4004   4.4086   4.4221   4.4795   4.4962   4.5126   4.5156
     4.5230   4.5265   4.6356   4.6494   4.6550   4.6810   4.7196   4.7227
     4.7391   4.7431   4.8506   4.8650   5.0196   5.0281   5.0342   5.0375
     5.0399   5.0727   5.1053   5.1560   5.1569   5.1613   5.1756   5.1885
     5.2190   5.2304   5.2996   5.3671   5.3835   5.3862   5.3955   5.4014
     5.4745   5.4800   5.5055   5.5499   5.5642   5.5679   5.6061   5.6164
     5.6301   5.6426   5.6451   5.7398   5.7481   5.7497   5.7793   5.7880
     5.8001   5.8077   5.8257   5.8468   5.8840   5.8961   5.9140   5.9213
     5.9219   5.9409   5.9531   5.9581   6.0008   6.0291   6.0443   6.0487
     6.0743   6.0998   6.1161   6.1771   6.1856   6.2044   6.2098   6.2139
     6.2172   6.2268   6.2364   6.2416   6.2498   6.2558   6.3758   6.3873
     6.3913   6.3946   6.4321   6.4331   6.4679   6.4727   6.4838   6.4906
     6.5049   6.5166   6.5396   6.5422   6.6452   6.6466   6.6652   6.6675
     6.6939   6.7002   6.7528   6.7653   6.8906   6.8936   6.8963   6.9113

          k = 0.2500 0.4330 0.0000 (108308 PWs)   bands (ev):

   -66.9593 -66.9476 -66.9467 -66.9233 -66.9152 -66.9118 -66.9056 -66.9040
   -66.9031 -66.9005 -66.8997 -66.8943 -66.8939 -66.8905 -66.8890 -66.8878
   -66.8839 -66.8790 -66.8764 -66.8755 -66.8741 -66.8727 -66.8716 -66.8710
   -66.7073 -66.6986 -66.6982 -66.6818 -66.6752 -66.6689 -66.6658 -66.6654
   -66.6621 -66.6613 -66.6595 -66.6586 -66.6462 -66.6046 -66.6023 -66.5928
   -66.5904 -66.5870 -66.5497 -66.5495 -66.5482 -66.5439 -66.5401 -66.5375
   -38.7637 -38.7527 -38.7504 -38.7291 -38.6348 -38.6338 -38.6276 -38.6234
   -38.6085 -38.6036 -38.5972 -38.5955 -38.5665 -38.5570 -38.5565 -38.5175
   -38.5111 -38.5001 -38.4985 -38.4933 -38.4918 -38.4758 -38.4715 -38.4593
   -38.4257 -38.4240 -38.4232 -38.4120 -38.3887 -38.3418 -38.3404 -38.3399
   -38.3303 -38.3283 -38.3217 -38.3160 -38.3146 -38.3096 -38.3094 -38.3009
   -38.2966 -38.2910 -38.2877 -38.2855 -38.2737 -38.2659 -38.2642 -38.2619
   -38.2388 -38.2381 -38.2348 -38.2310 -38.2278 -38.2252 -38.2205 -38.2202
   -38.2189 -38.2178 -38.2110 -38.2077 -38.2049 -38.2037 -38.2018 -38.1773
   -38.1761 -38.1705 -38.1686 -38.1606 -38.1561 -38.1542 -38.1489 -38.1459
   -38.1450 -38.1387 -38.1377 -38.1325 -38.1119 -38.1064 -38.1028 -38.1013
   -38.0948 -38.0942 -38.0911 -38.0889 -38.0841 -38.0826 -38.0798 -38.0539
   -38.0496 -38.0488 -38.0297 -38.0295 -38.0258 -38.0205 -38.0185 -38.0138
   -38.0055 -37.9963 -37.9942 -37.9884 -37.9846 -37.9736 -37.9716 -37.9696
   -37.9530 -37.9441 -37.9422 -37.9355 -37.9291 -37.9217 -37.9198 -37.9165
   -37.9154 -37.9055 -37.9048 -37.8986 -37.8897 -37.8838 -37.8831 -37.8784
   -37.8770 -37.8752 -37.8674 -37.8669 -37.8418 -37.8409 -37.8298 -37.8288
   -37.8271 -37.8179 -37.8175 -37.8099 -37.7999 -37.7792 -37.7753 -37.7750
   -37.6691 -37.6666 -37.6538 -37.6504 -37.6426 -37.6380 -37.6347 -37.6229
   -12.2866 -12.0738 -12.0724 -11.8807 -11.7474 -11.7438 -11.6947 -11.5297
   -11.5025 -11.3935 -11.3737 -11.3717 -11.3570 -11.2920 -11.1838 -11.1795
   -11.1574 -11.1561 -11.0706 -11.0485  -9.4941  -8.6908  -8.6635  -8.6632
    -8.6417  -2.9632  -2.8619  -2.8581  -2.8413  -2.7303  -2.7284  -2.6899
    -2.6512  -2.6000  -2.5883  -2.5696  -2.5603  -2.5208  -2.3382  -2.2300
    -2.1957  -2.1872  -2.1767  -2.1301  -2.0992  -2.0839  -2.0593  -2.0170
    -1.9769  -1.9281  -1.8739  -1.7363  -1.7021  -1.6456  -1.6178  -1.5413
    -1.4895  -1.4830  -1.4157  -1.3903  -1.3714  -1.3426  -1.3283  -1.3279
    -1.3152  -1.2744  -1.1567  -1.1550  -1.1124  -1.1103  -1.0874  -1.0435
    -0.9304  -0.9046  -0.9012  -0.8505  -0.8388  -0.8259  -0.8017  -0.7758
    -0.7749  -0.7240  -0.7191  -0.6305  -0.5346  -0.5227  -0.5192  -0.4252
     0.9853   1.1693   1.1706   1.2707   1.4543   1.4704   1.4723   1.4740
     1.5174   1.5984   1.5991   1.6263   1.6905   1.7088   1.7118   1.7681
     1.8859   2.0051   2.0062   2.0933   2.0946   2.1573   2.1606   2.2158
     2.2230   2.2824   2.2846   2.3184   2.3937   2.3990   2.4334   2.4342
     2.4827   2.5343   2.6005   2.6281   2.6285   2.7078   2.7116   2.8229
     2.8313   2.8325   2.8683   2.8698   2.9682   2.9733   2.9740   3.0390
     3.2214   3.2839   3.3311   3.3318   3.3738   3.3755   3.3820   3.4686
     3.4700   3.4738   3.4906   3.5994   3.6158   3.6211   3.6737   3.7429
     3.7461   3.7857   3.7931   3.8199   3.8263   3.8833   3.9096   3.9177
     4.0397   4.0555   4.0884   4.0967   4.1028   4.1123   4.1198   4.1538
     4.1737   4.1942   4.2385   4.2733   4.2765   4.3293   4.3369   4.3580
     4.3828   4.4027   4.4262   4.4377   4.4542   4.4698   4.4992   4.5104
     4.5966   4.6022   4.6266   4.6352   4.6379   4.6422   4.6913   4.7145
     4.7710   4.8989   4.9002   4.9205   4.9234   4.9396   4.9418   4.9479
     4.9953   5.0306   5.0768   5.1132   5.1592   5.1980   5.2035   5.2083
     5.2458   5.3149   5.3329   5.3570   5.3647   5.3837   5.4344   5.4654
     5.4729   5.4776   5.4939   5.5208   5.5498   5.5560   5.6025   5.6272
     5.6412   5.6694   5.7229   5.7494   5.7673   5.7688   5.7825   5.7898
     5.8116   5.8181   5.8214   5.8223   5.8445   5.9011   5.9094   5.9160
     5.9205   5.9305   5.9567   5.9674   5.9726   6.0090   6.0178   6.0691
     6.0766   6.0849   6.1061   6.1161   6.1331   6.1490   6.1622   6.2115
     6.2162   6.2223   6.2526   6.2621   6.2785   6.3120   6.3295   6.3491
     6.3797   6.3906   6.4134   6.4221   6.4749   6.4975   6.5089   6.5372
     6.5444   6.5487   6.6071   6.6078   6.6362   6.6556   6.6872   6.7134
     6.7145   6.7242   6.7572   6.7660   6.7826   6.8357   6.8915   6.8966

          k =-0.2500 0.1443 0.0000 (108355 PWs)   bands (ev):

   -66.9659 -66.9418 -66.9327 -66.9318 -66.9164 -66.9146 -66.9135 -66.9076
   -66.8999 -66.8971 -66.8966 -66.8946 -66.8929 -66.8925 -66.8858 -66.8851
   -66.8836 -66.8822 -66.8793 -66.8762 -66.8736 -66.8724 -66.8703 -66.8701
   -66.7123 -66.6945 -66.6881 -66.6875 -66.6750 -66.6741 -66.6703 -66.6638
   -66.6632 -66.6608 -66.6568 -66.6563 -66.6466 -66.6038 -66.6005 -66.5959
   -66.5890 -66.5868 -66.5503 -66.5497 -66.5476 -66.5469 -66.5380 -66.5369
   -38.7704 -38.7506 -38.7430 -38.7394 -38.6401 -38.6396 -38.6381 -38.6128
   -38.6043 -38.5953 -38.5951 -38.5914 -38.5672 -38.5513 -38.5387 -38.5328
   -38.5076 -38.5033 -38.4949 -38.4899 -38.4802 -38.4791 -38.4744 -38.4519
   -38.4366 -38.4354 -38.4342 -38.4124 -38.3540 -38.3523 -38.3471 -38.3420
   -38.3393 -38.3344 -38.3308 -38.3305 -38.3260 -38.3191 -38.3019 -38.3009
   -38.2973 -38.2909 -38.2842 -38.2823 -38.2739 -38.2529 -38.2515 -38.2378
   -38.2357 -38.2338 -38.2334 -38.2333 -38.2304 -38.2293 -38.2204 -38.2166
   -38.2146 -38.2130 -38.2090 -38.2025 -38.2014 -38.1973 -38.1912 -38.1880
   -38.1834 -38.1820 -38.1805 -38.1681 -38.1649 -38.1622 -38.1596 -38.1442
   -38.1433 -38.1290 -38.1277 -38.1231 -38.1217 -38.1098 -38.1091 -38.1031
   -38.0967 -38.0931 -38.0927 -38.0794 -38.0792 -38.0717 -38.0662 -38.0615
   -38.0529 -38.0509 -38.0393 -38.0274 -38.0223 -38.0193 -38.0169 -38.0096
   -38.0069 -38.0012 -37.9972 -37.9942 -37.9916 -37.9782 -37.9763 -37.9735
   -37.9434 -37.9402 -37.9362 -37.9296 -37.9281 -37.9273 -37.9192 -37.9185
   -37.9124 -37.9093 -37.9074 -37.8953 -37.8926 -37.8864 -37.8841 -37.8805
   -37.8792 -37.8699 -37.8698 -37.8659 -37.8395 -37.8357 -37.8353 -37.8269
   -37.8262 -37.8235 -37.8133 -37.8057 -37.8012 -37.7815 -37.7737 -37.7735
   -37.6726 -37.6708 -37.6552 -37.6468 -37.6430 -37.6411 -37.6272 -37.6213
   -12.4069 -11.9795 -11.9596 -11.8235 -11.8212 -11.6923 -11.6071 -11.6020
   -11.5307 -11.5271 -11.4492 -11.3061 -11.3015 -11.2547 -11.2364 -11.2336
   -11.2242 -11.1701 -11.0071 -10.9836  -9.4941  -8.6807  -8.6804  -8.6692
    -8.6284  -2.9470  -2.9417  -2.9019  -2.7886  -2.7179  -2.7061  -2.6908
    -2.6772  -2.6737  -2.5664  -2.5576  -2.4257  -2.3726  -2.3376  -2.3204
    -2.3166  -2.2728  -2.2226  -2.2020  -2.1780  -2.1312  -2.0082  -2.0010
    -1.9388  -1.8755  -1.7356  -1.7197  -1.6683  -1.5896  -1.5817  -1.5340
    -1.4494  -1.4461  -1.3942  -1.3881  -1.3587  -1.3467  -1.3294  -1.2910
    -1.2865  -1.2724  -1.2242  -1.2181  -1.2042  -1.0915  -1.0492  -1.0320
    -0.9846  -0.9245  -0.8762  -0.8615  -0.8574  -0.8052  -0.8027  -0.7992
    -0.7737  -0.7455  -0.6912  -0.6227  -0.6202  -0.4751  -0.4315  -0.4287
     0.8076   1.2185   1.2501   1.2505   1.4894   1.4896   1.4983   1.5019
     1.5653   1.5841   1.5854   1.6045   1.6647   1.7028   1.7063   1.7181
     1.8171   1.8226   1.8649   2.1044   2.1055   2.1483   2.1962   2.2012
     2.2539   2.3056   2.3376   2.3437   2.3664   2.4645   2.4678   2.4825
     2.4921   2.4948   2.5581   2.5866   2.5907   2.6053   2.6293   2.6584
     2.7620   2.8396   2.8410   2.9047   3.0619   3.1076   3.1714   3.2382
     3.2410   3.2741   3.2797   3.3077   3.4033   3.4059   3.4263   3.4371
     3.4388   3.4762   3.5533   3.6098   3.6355   3.6518   3.6761   3.7146
     3.7400   3.7464   3.7563   3.7718   3.8110   3.8200   3.8253   3.9042
     4.0017   4.0264   4.0490   4.0653   4.0721   4.0849   4.0997   4.1833
     4.2084   4.2214   4.2763   4.2872   4.3166   4.3280   4.3412   4.3470
     4.3600   4.3938   4.4133   4.4201   4.4445   4.4978   4.5232   4.5333
     4.5362   4.6040   4.6147   4.6866   4.7296   4.7660   4.7897   4.8021
     4.8214   4.8389   4.8776   4.8919   4.9425   4.9678   4.9807   4.9849
     5.0164   5.0371   5.0446   5.1012   5.1253   5.1750   5.1882   5.2195
     5.2348   5.2675   5.3363   5.3576   5.3741   5.3977   5.4590   5.4931
     5.5065   5.5113   5.5119   5.5650   5.5935   5.6001   5.6070   5.6137
     5.6208   5.7204   5.7327   5.7779   5.7909   5.7962   5.7972   5.8037
     5.8342   5.8525   5.8560   5.8739   5.8866   5.9232   5.9314   5.9340
     5.9433   5.9747   5.9868   6.0068   6.0123   6.0211   6.0549   6.0570
     6.0705   6.0767   6.0806   6.0885   6.1024   6.1058   6.1370   6.2207
     6.2385   6.2473   6.2680   6.2873   6.2920   6.2957   6.2972   6.3498
     6.3554   6.3585   6.3603   6.4093   6.4383   6.4454   6.4557   6.4976
     6.5058   6.5187   6.5768   6.5842   6.5924   6.6008   6.6877   6.6985
     6.7052   6.7296   6.7397   6.7592   6.7759   6.8034   6.8397   6.8443

          k = 0.2500 0.1443 0.0000 (108355 PWs)   bands (ev):

   -66.9659 -66.9418 -66.9327 -66.9318 -66.9164 -66.9146 -66.9135 -66.9076
   -66.8999 -66.8971 -66.8966 -66.8946 -66.8929 -66.8925 -66.8858 -66.8851
   -66.8836 -66.8822 -66.8793 -66.8762 -66.8736 -66.8724 -66.8703 -66.8701
   -66.7123 -66.6945 -66.6881 -66.6875 -66.6750 -66.6741 -66.6703 -66.6638
   -66.6632 -66.6608 -66.6568 -66.6563 -66.6466 -66.6038 -66.6005 -66.5959
   -66.5890 -66.5868 -66.5503 -66.5497 -66.5476 -66.5469 -66.5379 -66.5369
   -38.7704 -38.7506 -38.7430 -38.7394 -38.6401 -38.6396 -38.6381 -38.6128
   -38.6043 -38.5953 -38.5951 -38.5914 -38.5672 -38.5513 -38.5387 -38.5328
   -38.5076 -38.5033 -38.4949 -38.4899 -38.4802 -38.4791 -38.4744 -38.4519
   -38.4366 -38.4354 -38.4342 -38.4124 -38.3540 -38.3523 -38.3471 -38.3420
   -38.3393 -38.3344 -38.3308 -38.3305 -38.3260 -38.3191 -38.3019 -38.3009
   -38.2973 -38.2909 -38.2842 -38.2823 -38.2739 -38.2529 -38.2515 -38.2378
   -38.2357 -38.2338 -38.2334 -38.2333 -38.2304 -38.2293 -38.2204 -38.2166
   -38.2146 -38.2130 -38.2090 -38.2025 -38.2014 -38.1973 -38.1912 -38.1880
   -38.1834 -38.1820 -38.1805 -38.1681 -38.1649 -38.1622 -38.1596 -38.1442
   -38.1433 -38.1290 -38.1277 -38.1231 -38.1217 -38.1098 -38.1091 -38.1031
   -38.0967 -38.0931 -38.0927 -38.0794 -38.0792 -38.0717 -38.0662 -38.0615
   -38.0529 -38.0509 -38.0393 -38.0275 -38.0223 -38.0193 -38.0169 -38.0096
   -38.0069 -38.0012 -37.9972 -37.9942 -37.9916 -37.9782 -37.9763 -37.9735
   -37.9434 -37.9402 -37.9362 -37.9296 -37.9281 -37.9273 -37.9192 -37.9185
   -37.9124 -37.9093 -37.9075 -37.8953 -37.8926 -37.8864 -37.8841 -37.8805
   -37.8792 -37.8699 -37.8698 -37.8659 -37.8395 -37.8357 -37.8353 -37.8269
   -37.8262 -37.8235 -37.8133 -37.8057 -37.8012 -37.7815 -37.7737 -37.7735
   -37.6726 -37.6708 -37.6553 -37.6468 -37.6430 -37.6410 -37.6272 -37.6214
   -12.4069 -11.9795 -11.9596 -11.8235 -11.8212 -11.6923 -11.6071 -11.6020
   -11.5307 -11.5271 -11.4492 -11.3061 -11.3015 -11.2547 -11.2364 -11.2336
   -11.2242 -11.1701 -11.0071 -10.9836  -9.4941  -8.6807  -8.6804  -8.6692
    -8.6284  -2.9470  -2.9417  -2.9018  -2.7886  -2.7179  -2.7061  -2.6908
    -2.6772  -2.6737  -2.5664  -2.5576  -2.4257  -2.3726  -2.3376  -2.3204
    -2.3166  -2.2728  -2.2226  -2.2020  -2.1780  -2.1312  -2.0082  -2.0010
    -1.9388  -1.8755  -1.7356  -1.7197  -1.6683  -1.5896  -1.5817  -1.5340
    -1.4494  -1.4461  -1.3942  -1.3881  -1.3587  -1.3467  -1.3294  -1.2910
    -1.2865  -1.2724  -1.2242  -1.2181  -1.2042  -1.0915  -1.0492  -1.0320
    -0.9846  -0.9245  -0.8762  -0.8616  -0.8574  -0.8052  -0.8027  -0.7992
    -0.7737  -0.7455  -0.6912  -0.6227  -0.6202  -0.4751  -0.4315  -0.4287
     0.8076   1.2185   1.2501   1.2505   1.4894   1.4896   1.4983   1.5019
     1.5653   1.5841   1.5854   1.6045   1.6647   1.7028   1.7063   1.7181
     1.8171   1.8226   1.8649   2.1044   2.1055   2.1483   2.1962   2.2012
     2.2539   2.3056   2.3376   2.3437   2.3664   2.4645   2.4678   2.4825
     2.4921   2.4948   2.5581   2.5866   2.5907   2.6053   2.6293   2.6584
     2.7620   2.8396   2.8410   2.9047   3.0619   3.1076   3.1714   3.2382
     3.2410   3.2742   3.2797   3.3077   3.4033   3.4059   3.4263   3.4371
     3.4388   3.4762   3.5533   3.6098   3.6355   3.6518   3.6761   3.7146
     3.7400   3.7464   3.7563   3.7718   3.8110   3.8200   3.8253   3.9042
     4.0017   4.0264   4.0490   4.0653   4.0721   4.0849   4.0997   4.1833
     4.2084   4.2213   4.2763   4.2872   4.3166   4.3280   4.3412   4.3470
     4.3600   4.3938   4.4133   4.4201   4.4445   4.4978   4.5232   4.5333
     4.5362   4.6040   4.6147   4.6866   4.7296   4.7660   4.7897   4.8021
     4.8214   4.8389   4.8776   4.8919   4.9426   4.9678   4.9807   4.9849
     5.0164   5.0371   5.0446   5.1012   5.1253   5.1750   5.1882   5.2195
     5.2348   5.2676   5.3362   5.3576   5.3741   5.3977   5.4590   5.4931
     5.5066   5.5113   5.5119   5.5650   5.5935   5.6001   5.6070   5.6137
     5.6208   5.7204   5.7327   5.7779   5.7909   5.7962   5.7972   5.8037
     5.8342   5.8525   5.8560   5.8738   5.8866   5.9232   5.9314   5.9340
     5.9433   5.9746   5.9868   6.0068   6.0123   6.0211   6.0549   6.0570
     6.0705   6.0767   6.0806   6.0885   6.1024   6.1058   6.1370   6.2207
     6.2385   6.2473   6.2680   6.2873   6.2920   6.2957   6.2972   6.3498
     6.3554   6.3585   6.3603   6.4093   6.4383   6.4454   6.4557   6.4976
     6.5058   6.5187   6.5768   6.5842   6.5924   6.6008   6.6877   6.6984
     6.7052   6.7296   6.7397   6.7592   6.7758   6.8036   6.8400   6.8448

          k = 0.5000-0.2887 0.0000 (108310 PWs)   bands (ev):

   -66.9566 -66.9556 -66.9348 -66.9339 -66.9102 -66.9092 -66.9068 -66.9055
   -66.9032 -66.9021 -66.8966 -66.8942 -66.8942 -66.8939 -66.8897 -66.8884
   -66.8800 -66.8784 -66.8776 -66.8766 -66.8742 -66.8724 -66.8718 -66.8707
   -66.7051 -66.7048 -66.6896 -66.6889 -66.6702 -66.6690 -66.6672 -66.6668
   -66.6622 -66.6616 -66.6590 -66.6584 -66.6462 -66.6053 -66.6010 -66.5928
   -66.5917 -66.5862 -66.5504 -66.5487 -66.5483 -66.5434 -66.5408 -66.5372
   -38.7618 -38.7603 -38.7386 -38.7354 -38.6351 -38.6302 -38.6296 -38.6259
   -38.6069 -38.6015 -38.5983 -38.5971 -38.5662 -38.5642 -38.5409 -38.5347
   -38.5053 -38.4987 -38.4948 -38.4917 -38.4888 -38.4831 -38.4677 -38.4637
   -38.4297 -38.4276 -38.4172 -38.4153 -38.3633 -38.3614 -38.3385 -38.3370
   -38.3322 -38.3301 -38.3232 -38.3226 -38.3147 -38.3100 -38.3007 -38.2994
   -38.2951 -38.2948 -38.2918 -38.2844 -38.2740 -38.2727 -38.2686 -38.2391
   -38.2374 -38.2369 -38.2348 -38.2338 -38.2333 -38.2292 -38.2281 -38.2196
   -38.2174 -38.2154 -38.2146 -38.2076 -38.2039 -38.2022 -38.1851 -38.1806
   -38.1793 -38.1732 -38.1724 -38.1607 -38.1551 -38.1525 -38.1515 -38.1473
   -38.1459 -38.1384 -38.1333 -38.1327 -38.1103 -38.1078 -38.1069 -38.0995
   -38.0971 -38.0969 -38.0934 -38.0855 -38.0840 -38.0818 -38.0684 -38.0615
   -38.0497 -38.0480 -38.0313 -38.0256 -38.0240 -38.0186 -38.0150 -38.0143
   -38.0057 -38.0047 -37.9939 -37.9878 -37.9877 -37.9819 -37.9664 -37.9637
   -37.9537 -37.9479 -37.9417 -37.9363 -37.9268 -37.9250 -37.9207 -37.9138
   -37.9091 -37.9081 -37.9029 -37.8991 -37.8898 -37.8863 -37.8817 -37.8800
   -37.8731 -37.8724 -37.8720 -37.8712 -37.8373 -37.8366 -37.8331 -37.8326
   -37.8229 -37.8221 -37.8134 -37.8130 -37.7997 -37.7787 -37.7765 -37.7743
   -37.6713 -37.6624 -37.6578 -37.6469 -37.6425 -37.6380 -37.6363 -37.6229
   -12.2307 -12.2289 -11.8583 -11.8561 -11.8459 -11.8424 -11.6146 -11.6099
   -11.4425 -11.4396 -11.3163 -11.3160 -11.3078 -11.3007 -11.2788 -11.2779
   -11.0995 -11.0968 -11.0765 -11.0762  -9.4941  -8.6823  -8.6820  -8.6476
    -8.6473  -2.9181  -2.9053  -2.8151  -2.8107  -2.7511  -2.7487  -2.7446
    -2.7395  -2.6221  -2.6174  -2.5031  -2.5005  -2.3621  -2.3375  -2.2887
    -2.2827  -2.2335  -2.2197  -2.1323  -2.0970  -2.0697  -2.0247  -1.9937
    -1.9184  -1.9104  -1.8065  -1.7985  -1.6632  -1.6537  -1.6088  -1.5992
    -1.5361  -1.5068  -1.4134  -1.4082  -1.4047  -1.3850  -1.2806  -1.2759
    -1.2343  -1.2323  -1.2196  -1.2141  -1.0996  -1.0979  -1.0205  -1.0198
    -1.0013  -0.9950  -0.8729  -0.8708  -0.8254  -0.8228  -0.8052  -0.7965
    -0.7021  -0.7014  -0.6400  -0.6373  -0.5936  -0.5895  -0.4554  -0.4523
     1.0506   1.0536   1.2380   1.2384   1.4665   1.4693   1.4894   1.4901
     1.5654   1.5656   1.5815   1.5819   1.7206   1.7239   1.7310   1.7381
     1.9568   1.9631   1.9640   1.9672   2.1391   2.1416   2.1725   2.1792
     2.2667   2.2705   2.4010   2.4039   2.4246   2.4256   2.4547   2.4574
     2.4939   2.4974   2.5052   2.5102   2.6132   2.6214   2.7895   2.7909
     2.8373   2.8447   2.8584   2.8684   3.0574   3.0620   3.0790   3.0806
     3.1501   3.1508   3.2442   3.2528   3.3674   3.3688   3.4275   3.4334
     3.4583   3.4670   3.5602   3.5627   3.6367   3.6675   3.7027   3.7053
     3.7653   3.7758   3.8424   3.8581   3.9066   3.9133   3.9364   3.9526
     3.9720   3.9807   4.0117   4.0308   4.0325   4.0454   4.1601   4.1716
     4.1928   4.2041   4.2759   4.2831   4.3166   4.3300   4.3618   4.3871
     4.3935   4.4004   4.4086   4.4221   4.4795   4.4962   4.5126   4.5157
     4.5230   4.5265   4.6356   4.6494   4.6550   4.6810   4.7196   4.7227
     4.7391   4.7431   4.8506   4.8650   5.0196   5.0281   5.0342   5.0375
     5.0399   5.0727   5.1053   5.1560   5.1569   5.1613   5.1756   5.1885
     5.2190   5.2304   5.2995   5.3671   5.3835   5.3862   5.3955   5.4014
     5.4745   5.4800   5.5055   5.5499   5.5642   5.5679   5.6061   5.6164
     5.6301   5.6426   5.6451   5.7398   5.7481   5.7497   5.7793   5.7880
     5.8001   5.8077   5.8257   5.8468   5.8840   5.8961   5.9140   5.9213
     5.9219   5.9409   5.9531   5.9581   6.0008   6.0291   6.0443   6.0487
     6.0743   6.0998   6.1161   6.1771   6.1856   6.2044   6.2098   6.2139
     6.2172   6.2268   6.2364   6.2416   6.2498   6.2558   6.3757   6.3873
     6.3913   6.3946   6.4321   6.4331   6.4679   6.4727   6.4838   6.4906
     6.5049   6.5166   6.5396   6.5422   6.6453   6.6465   6.6652   6.6674
     6.6939   6.7002   6.7528   6.7653   6.8904   6.8958   6.9104   6.9903

          k =-0.5000-0.2887 0.0000 (108310 PWs)   bands (ev):

   -66.9566 -66.9556 -66.9348 -66.9339 -66.9102 -66.9092 -66.9068 -66.9055
   -66.9032 -66.9021 -66.8966 -66.8942 -66.8942 -66.8939 -66.8897 -66.8884
   -66.8800 -66.8784 -66.8776 -66.8766 -66.8742 -66.8724 -66.8718 -66.8707
   -66.7052 -66.7048 -66.6896 -66.6889 -66.6702 -66.6690 -66.6672 -66.6668
   -66.6622 -66.6616 -66.6590 -66.6584 -66.6462 -66.6053 -66.6010 -66.5927
   -66.5917 -66.5862 -66.5504 -66.5487 -66.5483 -66.5434 -66.5408 -66.5372
   -38.7618 -38.7603 -38.7386 -38.7354 -38.6351 -38.6302 -38.6296 -38.6259
   -38.6069 -38.6015 -38.5983 -38.5971 -38.5662 -38.5642 -38.5409 -38.5347
   -38.5053 -38.4987 -38.4948 -38.4917 -38.4888 -38.4831 -38.4677 -38.4637
   -38.4297 -38.4276 -38.4172 -38.4153 -38.3633 -38.3614 -38.3385 -38.3370
   -38.3322 -38.3301 -38.3232 -38.3226 -38.3147 -38.3100 -38.3007 -38.2994
   -38.2951 -38.2948 -38.2918 -38.2844 -38.2740 -38.2728 -38.2686 -38.2391
   -38.2374 -38.2369 -38.2348 -38.2338 -38.2333 -38.2292 -38.2281 -38.2196
   -38.2174 -38.2154 -38.2146 -38.2076 -38.2039 -38.2022 -38.1851 -38.1806
   -38.1793 -38.1732 -38.1724 -38.1607 -38.1551 -38.1525 -38.1515 -38.1473
   -38.1459 -38.1384 -38.1333 -38.1327 -38.1103 -38.1078 -38.1069 -38.0995
   -38.0971 -38.0969 -38.0934 -38.0855 -38.0840 -38.0818 -38.0684 -38.0615
   -38.0497 -38.0480 -38.0313 -38.0256 -38.0240 -38.0186 -38.0150 -38.0143
   -38.0057 -38.0047 -37.9939 -37.9878 -37.9877 -37.9819 -37.9664 -37.9637
   -37.9537 -37.9479 -37.9417 -37.9363 -37.9268 -37.9250 -37.9207 -37.9138
   -37.9091 -37.9081 -37.9029 -37.8991 -37.8898 -37.8863 -37.8817 -37.8800
   -37.8731 -37.8724 -37.8720 -37.8712 -37.8373 -37.8366 -37.8331 -37.8326
   -37.8229 -37.8221 -37.8134 -37.8129 -37.7997 -37.7787 -37.7765 -37.7743
   -37.6713 -37.6624 -37.6579 -37.6469 -37.6425 -37.6380 -37.6363 -37.6229
   -12.2307 -12.2289 -11.8583 -11.8561 -11.8459 -11.8424 -11.6146 -11.6100
   -11.4425 -11.4396 -11.3163 -11.3160 -11.3078 -11.3007 -11.2788 -11.2779
   -11.0995 -11.0968 -11.0765 -11.0762  -9.4941  -8.6823  -8.6820  -8.6476
    -8.6473  -2.9181  -2.9053  -2.8151  -2.8107  -2.7511  -2.7487  -2.7446
    -2.7395  -2.6220  -2.6174  -2.5031  -2.5005  -2.3621  -2.3375  -2.2887
    -2.2827  -2.2335  -2.2197  -2.1323  -2.0970  -2.0697  -2.0248  -1.9938
    -1.9184  -1.9104  -1.8065  -1.7985  -1.6632  -1.6537  -1.6088  -1.5992
    -1.5361  -1.5068  -1.4134  -1.4082  -1.4047  -1.3850  -1.2806  -1.2759
    -1.2343  -1.2323  -1.2196  -1.2141  -1.0996  -1.0979  -1.0205  -1.0198
    -1.0013  -0.9950  -0.8729  -0.8708  -0.8254  -0.8228  -0.8052  -0.7965
    -0.7021  -0.7014  -0.6400  -0.6373  -0.5936  -0.5895  -0.4553  -0.4523
     1.0506   1.0536   1.2380   1.2384   1.4665   1.4693   1.4894   1.4901
     1.5654   1.5656   1.5815   1.5819   1.7206   1.7239   1.7310   1.7381
     1.9568   1.9631   1.9640   1.9672   2.1391   2.1416   2.1725   2.1792
     2.2667   2.2704   2.4010   2.4039   2.4246   2.4257   2.4547   2.4574
     2.4939   2.4974   2.5052   2.5102   2.6132   2.6214   2.7895   2.7909
     2.8373   2.8447   2.8584   2.8684   3.0574   3.0620   3.0790   3.0806
     3.1501   3.1508   3.2442   3.2528   3.3673   3.3688   3.4275   3.4334
     3.4583   3.4670   3.5602   3.5627   3.6367   3.6675   3.7027   3.7053
     3.7653   3.7758   3.8424   3.8581   3.9067   3.9132   3.9364   3.9526
     3.9720   3.9807   4.0117   4.0308   4.0325   4.0454   4.1601   4.1716
     4.1927   4.2041   4.2759   4.2831   4.3166   4.3301   4.3618   4.3871
     4.3935   4.4004   4.4086   4.4221   4.4795   4.4962   4.5126   4.5156
     4.5230   4.5265   4.6356   4.6494   4.6550   4.6810   4.7196   4.7227
     4.7391   4.7431   4.8506   4.8650   5.0196   5.0281   5.0342   5.0375
     5.0399   5.0727   5.1053   5.1560   5.1569   5.1613   5.1756   5.1885
     5.2190   5.2304   5.2996   5.3671   5.3835   5.3862   5.3955   5.4014
     5.4745   5.4800   5.5055   5.5499   5.5642   5.5679   5.6061   5.6164
     5.6301   5.6426   5.6451   5.7398   5.7481   5.7497   5.7793   5.7880
     5.8001   5.8077   5.8257   5.8468   5.8840   5.8961   5.9141   5.9213
     5.9219   5.9409   5.9531   5.9581   6.0008   6.0291   6.0443   6.0487
     6.0743   6.0998   6.1161   6.1771   6.1856   6.2044   6.2098   6.2139
     6.2172   6.2268   6.2364   6.2416   6.2498   6.2558   6.3758   6.3873
     6.3913   6.3946   6.4321   6.4331   6.4679   6.4727   6.4838   6.4906
     6.5049   6.5166   6.5396   6.5422   6.6452   6.6465   6.6652   6.6675
     6.6938   6.7002   6.7528   6.7653   6.8903   6.8935   6.8959   6.9110

          k =-0.2500 0.4330 0.0000 (108308 PWs)   bands (ev):

   -66.9593 -66.9476 -66.9467 -66.9233 -66.9152 -66.9118 -66.9056 -66.9040
   -66.9032 -66.9005 -66.8997 -66.8943 -66.8939 -66.8905 -66.8890 -66.8878
   -66.8839 -66.8790 -66.8764 -66.8755 -66.8741 -66.8727 -66.8716 -66.8710
   -66.7073 -66.6986 -66.6982 -66.6818 -66.6752 -66.6689 -66.6658 -66.6654
   -66.6621 -66.6613 -66.6595 -66.6586 -66.6462 -66.6046 -66.6023 -66.5928
   -66.5905 -66.5870 -66.5497 -66.5494 -66.5482 -66.5439 -66.5401 -66.5375
   -38.7637 -38.7527 -38.7504 -38.7291 -38.6348 -38.6338 -38.6276 -38.6234
   -38.6085 -38.6036 -38.5972 -38.5955 -38.5665 -38.5570 -38.5565 -38.5175
   -38.5111 -38.5001 -38.4985 -38.4933 -38.4918 -38.4758 -38.4715 -38.4593
   -38.4257 -38.4240 -38.4232 -38.4120 -38.3887 -38.3418 -38.3404 -38.3399
   -38.3303 -38.3283 -38.3217 -38.3160 -38.3146 -38.3096 -38.3094 -38.3009
   -38.2966 -38.2910 -38.2877 -38.2855 -38.2737 -38.2659 -38.2642 -38.2619
   -38.2388 -38.2381 -38.2348 -38.2310 -38.2278 -38.2252 -38.2205 -38.2202
   -38.2189 -38.2178 -38.2110 -38.2077 -38.2049 -38.2037 -38.2018 -38.1773
   -38.1761 -38.1705 -38.1686 -38.1606 -38.1561 -38.1542 -38.1489 -38.1459
   -38.1450 -38.1387 -38.1377 -38.1325 -38.1119 -38.1064 -38.1028 -38.1013
   -38.0948 -38.0942 -38.0911 -38.0889 -38.0841 -38.0826 -38.0798 -38.0539
   -38.0496 -38.0488 -38.0297 -38.0295 -38.0258 -38.0206 -38.0185 -38.0138
   -38.0054 -37.9963 -37.9942 -37.9884 -37.9846 -37.9736 -37.9716 -37.9696
   -37.9530 -37.9441 -37.9422 -37.9355 -37.9290 -37.9217 -37.9198 -37.9165
   -37.9154 -37.9055 -37.9047 -37.8986 -37.8897 -37.8838 -37.8831 -37.8784
   -37.8770 -37.8752 -37.8674 -37.8669 -37.8418 -37.8409 -37.8298 -37.8288
   -37.8271 -37.8179 -37.8175 -37.8099 -37.7999 -37.7792 -37.7753 -37.7750
   -37.6691 -37.6666 -37.6538 -37.6504 -37.6426 -37.6380 -37.6347 -37.6229
   -12.2866 -12.0738 -12.0724 -11.8807 -11.7474 -11.7438 -11.6947 -11.5297
   -11.5025 -11.3935 -11.3737 -11.3717 -11.3570 -11.2920 -11.1838 -11.1795
   -11.1574 -11.1561 -11.0706 -11.0485  -9.4941  -8.6908  -8.6635  -8.6632
    -8.6417  -2.9632  -2.8619  -2.8580  -2.8413  -2.7302  -2.7284  -2.6899
    -2.6512  -2.6000  -2.5883  -2.5696  -2.5603  -2.5208  -2.3382  -2.2300
    -2.1957  -2.1872  -2.1767  -2.1301  -2.0992  -2.0839  -2.0593  -2.0170
    -1.9769  -1.9281  -1.8739  -1.7363  -1.7021  -1.6456  -1.6178  -1.5413
    -1.4895  -1.4830  -1.4157  -1.3903  -1.3714  -1.3426  -1.3283  -1.3279
    -1.3152  -1.2744  -1.1567  -1.1550  -1.1124  -1.1103  -1.0874  -1.0435
    -0.9304  -0.9046  -0.9012  -0.8505  -0.8388  -0.8259  -0.8017  -0.7758
    -0.7749  -0.7240  -0.7191  -0.6305  -0.5346  -0.5227  -0.5193  -0.4252
     0.9853   1.1693   1.1706   1.2707   1.4543   1.4704   1.4723   1.4740
     1.5174   1.5984   1.5991   1.6263   1.6905   1.7088   1.7118   1.7681
     1.8859   2.0051   2.0062   2.0933   2.0946   2.1573   2.1606   2.2158
     2.2230   2.2824   2.2846   2.3184   2.3937   2.3990   2.4334   2.4342
     2.4827   2.5342   2.6005   2.6281   2.6285   2.7078   2.7115   2.8229
     2.8313   2.8326   2.8683   2.8698   2.9682   2.9733   2.9740   3.0390
     3.2214   3.2839   3.3311   3.3318   3.3738   3.3755   3.3820   3.4686
     3.4700   3.4738   3.4906   3.5994   3.6158   3.6211   3.6737   3.7429
     3.7461   3.7857   3.7931   3.8199   3.8263   3.8833   3.9096   3.9177
     4.0397   4.0555   4.0884   4.0967   4.1028   4.1123   4.1198   4.1538
     4.1737   4.1941   4.2385   4.2733   4.2765   4.3293   4.3369   4.3580
     4.3828   4.4027   4.4262   4.4377   4.4542   4.4698   4.4992   4.5104
     4.5966   4.6022   4.6266   4.6352   4.6379   4.6422   4.6913   4.7145
     4.7710   4.8989   4.9002   4.9205   4.9234   4.9396   4.9418   4.9479
     4.9953   5.0306   5.0768   5.1132   5.1593   5.1980   5.2035   5.2083
     5.2458   5.3149   5.3329   5.3570   5.3647   5.3837   5.4344   5.4654
     5.4729   5.4776   5.4939   5.5208   5.5498   5.5560   5.6025   5.6272
     5.6412   5.6694   5.7229   5.7494   5.7673   5.7688   5.7825   5.7898
     5.8116   5.8181   5.8214   5.8223   5.8445   5.9011   5.9094   5.9160
     5.9205   5.9305   5.9566   5.9674   5.9726   6.0090   6.0178   6.0691
     6.0766   6.0849   6.1061   6.1161   6.1331   6.1490   6.1622   6.2115
     6.2162   6.2223   6.2526   6.2621   6.2785   6.3120   6.3296   6.3491
     6.3797   6.3906   6.4134   6.4221   6.4749   6.4975   6.5089   6.5372
     6.5444   6.5487   6.6071   6.6078   6.6362   6.6556   6.6872   6.7134
     6.7144   6.7242   6.7572   6.7660   6.7826   6.8356   6.8915   6.8962

          k = 0.5000-0.0000 0.0000 (108308 PWs)   bands (ev):

   -66.9593 -66.9476 -66.9467 -66.9233 -66.9152 -66.9118 -66.9056 -66.9040
   -66.9032 -66.9005 -66.8997 -66.8943 -66.8939 -66.8905 -66.8890 -66.8878
   -66.8839 -66.8790 -66.8764 -66.8755 -66.8741 -66.8727 -66.8716 -66.8710
   -66.7073 -66.6986 -66.6982 -66.6818 -66.6752 -66.6689 -66.6658 -66.6654
[...]
     6.7588   6.8166   6.8570   6.8745   6.8897   6.9474   6.9928   7.0014

          k = 0.5000-0.0000 0.0000 (108308 PWs)   bands (ev):

   -66.9099 -66.8983 -66.8979 -66.8753 -66.8673 -66.8602 -66.8584 -66.8537
   -66.8535 -66.8527 -66.8497 -66.8482 -66.8476 -66.8448 -66.8437 -66.8344
   -66.8309 -66.8258 -66.8231 -66.8210 -66.8194 -66.8187 -66.8128 -66.8122
   -66.6682 -66.6603 -66.6602 -66.6493 -66.6227 -66.6183 -66.6177 -66.6174
   -66.6128 -66.6122 -66.6119 -66.6099 -66.5756 -66.5596 -66.5557 -66.5488
   -66.5324 -66.5317 -66.5017 -66.5007 -66.4995 -66.4976 -66.4945 -66.4921
   -38.7024 -38.6914 -38.6862 -38.6664 -38.5762 -38.5757 -38.5693 -38.5642
   -38.5531 -38.5505 -38.5478 -38.5468 -38.5149 -38.5025 -38.5002 -38.4643
   -38.4613 -38.4554 -38.4528 -38.4471 -38.4390 -38.4356 -38.4314 -38.4284
   -38.3755 -38.3737 -38.3732 -38.3676 -38.3588 -38.3522 -38.3495 -38.3490
   -38.3378 -38.2776 -38.2767 -38.2742 -38.2721 -38.2605 -38.2599 -38.2488
   -38.2473 -38.2439 -38.2429 -38.2363 -38.2222 -38.2171 -38.2132 -38.2111
   -38.2084 -38.2072 -38.2037 -38.2006 -38.1980 -38.1888 -38.1885 -38.1803
   -38.1796 -38.1748 -38.1716 -38.1648 -38.1584 -38.1536 -38.1533 -38.1352
   -38.1282 -38.1253 -38.1219 -38.1198 -38.1179 -38.1177 -38.1086 -38.1067
   -38.0955 -38.0947 -38.0910 -38.0846 -38.0719 -38.0587 -38.0569 -38.0527
   -38.0505 -38.0481 -38.0453 -38.0420 -38.0345 -38.0274 -38.0272 -38.0169
   -38.0161 -38.0150 -37.9754 -37.9745 -37.9685 -37.9644 -37.9617 -37.9610
   -37.9462 -37.9369 -37.9356 -37.9273 -37.9244 -37.9203 -37.9156 -37.9125
   -37.8976 -37.8882 -37.8789 -37.8773 -37.8702 -37.8649 -37.8641 -37.8603
   -37.8529 -37.8516 -37.8484 -37.8420 -37.8384 -37.8338 -37.8311 -37.8306
   -37.8268 -37.8255 -37.8233 -37.8218 -37.7864 -37.7859 -37.7804 -37.7751
   -37.7731 -37.7642 -37.7641 -37.7563 -37.7434 -37.7397 -37.7392 -37.7115
   -37.6101 -37.6091 -37.6015 -37.5990 -37.5897 -37.5843 -37.5814 -37.5728
   -12.1883 -11.9741 -11.9712 -11.7870 -11.6422 -11.6417 -11.6052 -11.4285
   -11.3664 -11.2897 -11.2826 -11.2777 -11.2236 -11.2093 -11.0778 -11.0756
   -11.0098 -11.0088 -10.9649 -10.8923  -9.7146  -9.1715  -9.1225  -9.1218
    -9.0826  -2.9716  -2.9697  -2.8859  -2.7705  -2.7103  -2.6941  -2.6352
    -2.5990  -2.5758  -2.5238  -2.4948  -2.4681  -2.4471  -2.4399  -2.3950
    -2.2180  -2.1261  -2.0855  -2.0676  -2.0415  -1.9994  -1.9962  -1.9423
    -1.9305  -1.8042  -1.7371  -1.6304  -1.5656  -1.5346  -1.4921  -1.4348
    -1.3892  -1.3372  -1.3203  -1.2681  -1.2658  -1.2383  -1.2299  -1.2249
    -1.1736  -1.1184  -1.0488  -1.0424  -1.0026  -0.9979  -0.9631  -0.9240
    -0.8203  -0.8075  -0.7957  -0.7520  -0.7347  -0.7020  -0.6975  -0.6767
    -0.6743  -0.5905  -0.5711  -0.5210  -0.4209  -0.3918  -0.3741  -0.2644
     0.8320   0.8864   0.8889   0.9252   1.1244   1.1274   1.1723   1.1756
     1.1757   1.2341   1.2403   1.2405   1.4347   1.5655   1.5839   1.7783
     1.9328   2.0346   2.0483   2.0698   2.1432   2.1443   2.1569   2.1583
     2.2242   2.3222   2.3273   2.3981   2.4701   2.4719   2.5019   2.5046
     2.5425   2.6023   2.6572   2.6667   2.6742   2.7388   2.7602   2.8011
     2.8816   2.8914   2.9121   2.9242   3.0039   3.0051   3.0253   3.1088
     3.2460   3.3352   3.3608   3.3781   3.4152   3.4221   3.4374   3.4808
     3.5135   3.5285   3.5293   3.5569   3.6299   3.6403   3.6539   3.7375
     3.7688   3.8001   3.8019   3.8468   3.8586   3.9011   3.9230   3.9376
     4.0124   4.0219   4.0927   4.1270   4.1286   4.1528   4.1596   4.1729
     4.1965   4.2039   4.2822   4.2945   4.3156   4.3174   4.3768   4.3787
     4.3916   4.4110   4.4525   4.4556   4.4930   4.4966   4.5360   4.5517
     4.6186   4.6319   4.6518   4.6634   4.6674   4.6985   4.7477   4.7702
     4.7824   4.9274   4.9295   4.9410   4.9649   4.9825   5.0083   5.0220
     5.0659   5.1011   5.1226   5.1808   5.2015   5.2459   5.2706   5.2751
     5.3141   5.3383   5.3830   5.3931   5.4226   5.4309   5.4934   5.5100
     5.5218   5.5258   5.5411   5.5640   5.5899   5.6009   5.6638   5.6720
     5.7043   5.7249   5.8026   5.8044   5.8209   5.8337   5.8448   5.8510
     5.8673   5.8708   5.8903   5.8988   5.9179   5.9557   5.9631   5.9657
     5.9801   6.0070   6.0360   6.0447   6.0751   6.0842   6.1142   6.1307
     6.1468   6.1679   6.1799   6.1996   6.2111   6.2512   6.2560   6.2623
     6.2985   6.3358   6.3463   6.3471   6.3776   6.3892   6.4030   6.4306
     6.4389   6.4951   6.5062   6.5398   6.5671   6.5742   6.5950   6.5974
     6.6164   6.6587   6.6594   6.6916   6.7196   6.7338   6.7393   6.7550
     6.7588   6.8166   6.8570   6.8745   6.8897   6.9474   6.9928   7.0014

     the Fermi energy is     5.2883 ev

!    total energy              =  -12616.49580837 Ry
     total all-electron energy =   -103594.999615 Ry
     estimated scf accuracy    <          5.8E-11 Ry
     smearing contrib. (-TS)   =       0.01030008 Ry
     internal energy E=F+TS    =  -12616.50610845 Ry

     The total energy is F=E-TS. E is the sum of the following terms:
     one-electron contribution =  -67818.70771323 Ry
     hartree contribution      =   34025.09404811 Ry
     xc contribution           =   -1216.16745201 Ry
     ewald contribution        =   26155.65512843 Ry
     DFT-D3 Dispersion         =      -1.09132314 Ry
     one-center paw contrib.   =   -3761.28879661 Ry

     convergence has been achieved in  39 iterations

     negative rho (up, down):  2.206E-04 0.000E+00

     Forces acting on atoms (cartesian axes, Ry/au):

     atom    1 type  1   force =    -0.00030482    0.00034139    0.00004235
     atom    2 type  1   force =     0.00023333   -0.00013433    0.00006818
     atom    3 type  1   force =     0.00002930    0.00000008    0.00012366
     atom    4 type  1   force =    -0.00006431   -0.00012268   -0.00041037
     atom    5 type  1   force =    -0.00009936    0.00008673   -0.00007405
     atom    6 type  1   force =     0.00007544   -0.00002608   -0.00018558
     atom    7 type  2   force =    -0.00015406   -0.00010484    0.00010369
     atom    8 type  2   force =    -0.00000310   -0.00005571   -0.00032100
     atom    9 type  2   force =     0.00000452   -0.00002960   -0.00025136
     atom   10 type  1   force =     0.00002291    0.00014151    0.00010585
     atom   11 type  1   force =     0.00020304    0.00010211    0.00012974
     atom   12 type  1   force =     0.00014182    0.00039683   -0.00039114
     atom   13 type  1   force =     0.00001645   -0.00017466   -0.00013476
     atom   14 type  1   force =    -0.00015056    0.00033396    0.00011948
     atom   15 type  1   force =     0.00033910    0.00006068    0.00034170
     atom   16 type  2   force =     0.00021637    0.00014301    0.00081392
     atom   17 type  2   force =     0.00029427    0.00012255    0.00008294
     atom   18 type  2   force =    -0.00001939    0.00037136   -0.00010475
     atom   19 type  1   force =    -0.00000047    0.00026982    0.00006787
     atom   20 type  1   force =     0.00003145   -0.00003079   -0.00015165
     atom   21 type  1   force =    -0.00023283   -0.00013534    0.00006854
     atom   22 type  1   force =    -0.00006048   -0.00005241   -0.00018515
     atom   23 type  1   force =    -0.00001468    0.00007892   -0.00018568
     atom   24 type  1   force =     0.00027912   -0.00002772   -0.00017259
     atom   25 type  2   force =     0.00016829   -0.00008093    0.00010396
     atom   26 type  2   force =    -0.00004663    0.00003028   -0.00031992
     atom   27 type  2   force =     0.00000004    0.00000021   -0.00049084
     atom   28 type  1   force =    -0.00019085    0.00012440    0.00012881
     atom   29 type  1   force =    -0.00046984    0.00010231    0.00079813
     atom   30 type  1   force =    -0.00001147   -0.00022608    0.00012971
     atom   31 type  1   force =    -0.00011650   -0.00032335    0.00034171
     atom   32 type  1   force =    -0.00022121    0.00026342    0.00034213
     atom   33 type  1   force =     0.00010617    0.00003360   -0.00039323
     atom   34 type  2   force =    -0.00023143    0.00011605    0.00081377
     atom   35 type  2   force =    -0.00004068   -0.00031634    0.00008172
     atom   36 type  2   force =     0.00000026    0.00000048    0.00029166
     atom   37 type  1   force =     0.00001041    0.00004238   -0.00015215
     atom   38 type  1   force =     0.00044867    0.00009390    0.00004171
     atom   39 type  1   force =    -0.00014334   -0.00043503    0.00004176
     atom   40 type  1   force =    -0.00002538   -0.00012996   -0.00007450
     atom   41 type  1   force =    -0.00011535    0.00025501   -0.00017243
     atom   42 type  1   force =     0.00012483    0.00004228   -0.00007401
     atom   43 type  2   force =    -0.00001346    0.00018527    0.00010385
     atom   44 type  2   force =    -0.00000009    0.00000008   -0.00023830
     atom   45 type  2   force =     0.00002332    0.00001820   -0.00025214
     atom   46 type  1   force =     0.00014628   -0.00045838    0.00079776
     atom   47 type  1   force =     0.00010998   -0.00009005    0.00010493
     atom   48 type  1   force =    -0.00013367   -0.00005064    0.00010588
     atom   49 type  1   force =    -0.00021396   -0.00029662    0.00011961
     atom   50 type  1   force =    -0.00008212    0.00007547   -0.00039299
     atom   51 type  1   force =     0.00036319   -0.00003658    0.00011972
     atom   52 type  2   force =     0.00001519   -0.00025911    0.00081332
     atom   53 type  2   force =    -0.00000020    0.00000047    0.00015263
     atom   54 type  2   force =    -0.00031154   -0.00020289   -0.00010439
     atom   55 type  1   force =    -0.00001458   -0.00002496    0.00012302
     atom   56 type  1   force =    -0.00001445    0.00002484    0.00012306
     atom   57 type  1   force =    -0.00004306   -0.00001237   -0.00015226
     atom   58 type  1   force =    -0.00016335   -0.00022756   -0.00017221
     atom   59 type  1   force =    -0.00007429    0.00011662   -0.00040973
     atom   60 type  1   force =     0.00013872    0.00000586   -0.00041001
     atom   61 type  2   force =    -0.00000047    0.00000019   -0.00033668
     atom   62 type  2   force =     0.00004997    0.00002535   -0.00032079
     atom   63 type  2   force =    -0.00002765    0.00001104   -0.00025105
     atom   64 type  1   force =     0.00027253   -0.00032149   -0.00039165
     atom   65 type  1   force =    -0.00041432   -0.00007530   -0.00039168
     atom   66 type  1   force =     0.00032332    0.00035591    0.00079823
     atom   67 type  1   force =    -0.00002437   -0.00010813   -0.00039245
     atom   68 type  1   force =    -0.00015955    0.00007206   -0.00013430
     atom   69 type  1   force =     0.00014265    0.00010156   -0.00013338
     atom   70 type  2   force =    -0.00000030    0.00000010    0.00005493
     atom   71 type  2   force =    -0.00025363    0.00019315    0.00008286
     atom   72 type  2   force =     0.00033039   -0.00016904   -0.00010444
     atom   73 type  3   force =    -0.00000057   -0.00000061   -0.00032131
     atom   74 type  4   force =     0.00000039   -0.00000007   -0.00021423
     atom   75 type  4   force =    -0.00011623    0.00000571    0.00022875
     atom   76 type  4   force =     0.00006276    0.00009702    0.00022856
     atom   77 type  4   force =     0.00005414   -0.00010253    0.00022905

     Total force =     0.003498     Total SCF correction =     0.000044
     Energy error            =      3.1E-05 Ry
     Gradient error          =      8.1E-04 Ry/Bohr

     bfgs converged in  45 scf cycles and  43 bfgs steps
     (criteria: energy <  1.0E-04 Ry, force <  1.0E-03 Ry/Bohr)

     End of BFGS Geometry Optimization

     Final energy             =  -12616.4958083666 Ry

     File tmp/CH4-H31_Rot60_hollow_/CH4-H31_Rot60_hollow_.bfgs deleted, as requested
Begin final coordinates

ATOMIC_POSITIONS (angstrom)
Cr              -1.5958926881        2.7630664524        8.2597310659
Cr               3.1919847406        0.0005950653        8.2608796088
Cr               0.7783000727        1.3494093915        8.2636356920
Cr               1.6295367229        2.8222749026        6.1327261927
Cr              -0.7446478335        1.2905622765        6.1325234416
Cr               1.4909442226       -0.0002702001        6.1345342112
N                0.0014238929       -0.0004317548        5.0889508782
N                2.3750817989        1.3720470008        7.1202451302
N               -0.0000098055        2.7430042631        7.1189209437
Cr              -1.6503801284        2.8514299912       12.5396393370
Cr               3.2926071860       -0.0042273202       12.5378467073
Cr               0.7096268237        1.2276505176       12.5308120321
Cr               1.5900101867        2.7553135462       10.4462247704
Cr              -0.7809684757        1.3458036795       10.4562934923
Cr               1.5559703878       -0.0022667093       10.4541914628
N               -0.0047652168       -0.0056598042        9.3425422275
N                2.3648983911        1.3687961478       11.5740392233
N                0.0026346562        2.7314866361       11.5756852411
Cr              -3.9721917418        6.8788442948        8.2608789940
Cr               0.8208057559        4.1144470606        8.2570943138
Cr              -1.5954746746        5.4649753474        8.2608768441
Cr              -0.7457101758        6.9385549673        6.1345290412
Cr              -3.1209242956        5.4061378377        6.1345325124
Cr              -0.8852368553        4.1153382400        6.1330412263
N               -2.3760259490        4.1162549109        5.0889499876
N                0.0006849144        5.4867086020        7.1202330186
N               -2.3756850632        6.8580085824        7.1222591164
Cr              -4.0183253572        6.9684028581       12.5378515606
Cr               0.8924862193        4.1145388785       12.5406359625
Cr              -1.6499732536        5.3802338244       12.5378487846
Cr              -0.7799472820        6.8832308723       10.4541926805
Cr              -3.1517087676        5.4634471309       10.4541899310
Cr              -0.8110850381        4.1140260317       10.4670451938
N               -2.3683998237        4.1135086876        9.3425445651
N                0.0029604888        5.4971527626       11.5740480857
N               -2.3756840957        6.8580059961       11.5732808146
Cr               3.1534366607        2.7684238125        8.2571004175
Cr               7.9421999154        0.0005501317        8.2597314464
Cr               5.5321168747        1.3511887573        8.2597334976
Cr               6.3817167671        2.8246443480        6.1325270243
Cr               4.0056811617        1.2905076180        6.1330471759
Cr               6.2413493292       -0.0003926901        6.1325220198
N                4.7502787808       -0.0010069970        5.0889500938
N                7.1270546514        1.3716029314        7.1179827101
N                4.7515485823        2.7432992863        7.1189296994
Cr               3.1175133063        2.8304529131       12.5406349191
Cr               8.0459843436        0.0035540873       12.5396429762
Cr               5.4828307260        1.2598169799       12.5396361656
Cr               6.3520405936        2.7655599850       10.4562934761
Cr               3.9697451396        1.3553714457       10.4670431022
Cr               6.3073599999        0.0034356140       10.4562918548
N                4.7488525018        0.0069549047        9.3425461226
N                7.1270565961        1.3715973321       11.5777263828
N                4.7601986372        2.7513446447       11.5756810915
Cr               0.7794687745        6.8808762504        8.2636337702
Cr               5.5692818854        4.1141355123        8.2636387105
Cr               3.1528084431        5.4615542921        8.2570969462
Cr               4.0066042211        6.9385770402        6.1330422290
Cr               1.6293935598        5.4072548511        6.1327190638
Cr               3.8681227447        4.1148872165        6.1327263396
N                2.3756869122        4.1148031774        5.0909829287
N                4.7512835535        5.4856644598        7.1202412483
N                2.3755119103        6.8581187001        7.1189170185
Cr               0.7083674170        7.0012315700       12.5308137477
Cr               5.7090626340        4.1155323194       12.5308126901
Cr               3.1170556155        5.3994247794       12.5406350466
Cr               3.9683964774        6.8750181115       10.4670431402
Cr               1.5911632098        5.4749676818       10.4462275989
Cr               3.9458789218        4.1141407821       10.4462215877
N                2.3756827406        4.1148089576        9.3523826888
N                4.7591955331        5.4784704043       11.5740425325
N                2.3642238067        6.8615865826       11.5756862526
C                2.3756831525        4.1148034175       14.1524446768
H                2.3756804089        4.1147953826       15.2701670401
H                3.0043260721        3.0378149407       14.2209572251
H                1.1286660397        4.1089022753       14.2209595159
H                2.9940514595        5.1977101941       14.2209610657
End final coordinates



     Writing all to output data dir tmp/CH4-H31_Rot60_hollow_/CH4-H31_Rot60_hollow_.save/ :
     XML data file, charge density, pseudopotentials, collected wavefunctions
 
     init_run     :     18.15s CPU     18.95s WALL (       1 calls)
     electrons    :  72790.65s CPU  74752.23s WALL (      45 calls)
     update_pot   :     55.11s CPU     57.55s WALL (      44 calls)
     forces       :    464.63s CPU    481.38s WALL (      45 calls)
     force_dftd3  :     19.86s CPU     20.43s WALL (      45 calls)

     Called by init_run:
     wfcinit      :     13.92s CPU     14.31s WALL (       1 calls)
     potinit      :      1.03s CPU      1.17s WALL (       1 calls)
     hinit0       :      0.34s CPU      0.43s WALL (       1 calls)

     Called by electrons:
     c_bands      :  60042.48s CPU  61299.90s WALL (    1854 calls)
     sum_band     :   9972.23s CPU  10335.60s WALL (    1854 calls)
     v_of_rho     :   1076.59s CPU   1153.53s WALL (    1891 calls)
     newd         :    824.57s CPU   1058.56s WALL (    1891 calls)
     PAW_pot      :    676.04s CPU    684.37s WALL (    1935 calls)
     mix_rho      :    150.61s CPU    161.39s WALL (    1854 calls)
     energy_dftd3 :      5.13s CPU      5.16s WALL (      45 calls)

     Called by c_bands:
     init_us_2    :   1044.67s CPU   1059.19s WALL (   11394 calls)
     cegterg      :  56388.53s CPU  57612.69s WALL (    5562 calls)

     Called by *egterg:
     cdiaghg      :   2090.42s CPU   2113.98s WALL (   19691 calls)
     h_psi        :  27254.24s CPU  27774.08s WALL (   19850 calls)
     s_psi        :   6602.74s CPU   6670.46s WALL (   19850 calls)
     g_psi        :    128.20s CPU    129.94s WALL (   14285 calls)

     Called by h_psi:
     h_psi:calbec :   6681.07s CPU   6750.57s WALL (   19850 calls)
     vloc_psi     :  13732.75s CPU  13955.70s WALL (   19850 calls)
                                        0.00s GPU  (   19850 calls)
     add_vuspsi   :   6621.63s CPU   6692.15s WALL (   19850 calls)

     General routines
     calbec       :  10091.88s CPU  10194.26s WALL (   26084 calls)
     fft          :    869.93s CPU    938.44s WALL (   25040 calls)
     ffts         :     11.89s CPU     13.41s WALL (    3745 calls)
     fftw         :  13755.39s CPU  13966.23s WALL (14116058 calls)
     interpolate  :     62.78s CPU     69.05s WALL (    1891 calls)
 
     Parallel routines
 
     PWSCF        :     20h24m CPU     20h57m WALL

 
   This run was terminated on:  23:53:56   5Jun2026            

=------------------------------------------------------------------------------=
   JOB DONE.
=------------------------------------------------------------------------------=
