
     Program PWSCF v.7.5 starts on  5Jun2026 at  3:42:58 

     This program is part of the open-source Quantum ESPRESSO suite
     for quantum simulation of materials; please cite
         "P. Giannozzi et al., J. Phys.:Condens. Matter 21 395502 (2009);
         "P. Giannozzi et al., J. Phys.:Condens. Matter 29 465901 (2017);
         "P. Giannozzi et al., J. Chem. Phys. 152 154105 (2020);
          URL http://www.quantum-espresso.org", 
     in publications or presentations arising from this work. More details at
     http://www.quantum-espresso.org/quote

     Parallel version (MPI & OpenMP), running on      64 processor cores
     Number of MPI processes:                64
     Threads/MPI process:                     1

     MPI processes distributed on     1 nodes
     141092 MiB available memory on the printing compute node when the environment starts
 
     Reading input from generated_inputs/adsorcion/pw-CH4-H31_Rot60_ontop_.in
Warning: card &CELL ignored

     Current dimensions of program PWSCF are:
     Max number of different atomic species (ntypx) = 10
     Max number of k-points (npk) =  40000
     Max angular momentum in pseudopotentials (lmaxx) =  4
     file Cr.pbe-spn-kjpaw_psl.1.0.0.UPF: wavefunction(s)  3S 3P 3D renormalized
     file N.pbe-n-kjpaw_psl.1.0.0.UPF: wavefunction(s)  2S renormalized
     file C.pbe-n-kjpaw_psl.1.0.0.UPF: wavefunction(s)  2S 2P renormalized
     file H.pbe-kjpaw_psl.1.0.0.UPF: wavefunction(s)  1S renormalized
 
     K-points division:     npool     =       4
     R & G space division:  proc/nbgrp/npool/nimage =      16
     Subspace diagonalization in iterative solution of the eigenvalue problem:
     one sub-group per band group will be used
     scalapack distributed-memory algorithm (size of sub-group:  4*  4 procs)

 
     Parallelization info
     --------------------
     sticks:   dense  smooth     PW     G-vecs:    dense   smooth      PW
     Min        1166     388    102               281408    54158    7274
     Max        1167     389    103               281417    54165    7281
     Sum       18661    6217   1639              4502593   866593  116429
 
     Using Slab Decomposition
 


     bravais-lattice index     =            0
     lattice parameter (alat)  =      17.9576  a.u.
     unit-cell volume          =   10952.5767 (a.u.)^3
     number of atoms/cell      =           77
     number of atomic types    =            4
     number of electrons       =       800.00
     number of Kohn-Sham states=          480
     kinetic-energy cutoff     =      70.0000  Ry
     charge density cutoff     =     840.0000  Ry
     scf convergence threshold =      1.0E-08
     mixing beta               =       0.2000
     number of iterations used =            8  plain     mixing
     energy convergence thresh.=      1.0E-04
     force convergence thresh. =      1.0E-03
     Exchange-correlation= SLA  PW   PBX  PBC
                           (   1   4   3   4   0   0   0)
     nstep                     =          200


     celldm(1)=  17.957575  celldm(2)=   0.000000  celldm(3)=   0.000000
     celldm(4)=   0.000000  celldm(5)=   0.000000  celldm(6)=   0.000000

     crystal axes: (cart. coord. in units of alat)
               a(1) = (   1.000000   0.000000   0.000000 )  
               a(2) = (  -0.500000   0.866025   0.000000 )  
               a(3) = (   0.000000   0.000000   2.183951 )  

     reciprocal axes: (cart. coord. in units 2 pi/alat)
               b(1) = (  1.000000  0.577351  0.000000 )  
               b(2) = (  0.000000  1.154701  0.000000 )  
               b(3) = (  0.000000  0.000000  0.457886 )  


     PseudoPot. # 1 for Cr read from file:
     pseudo/Cr.pbe-spn-kjpaw_psl.1.0.0.UPF
     MD5 check sum: 198f1a2427a48552563eee314eba32ba
     Pseudo is Projector augmented-wave + core cor, Zval = 14.0
     Generated using &quot;atomic&quot; code by A. Dal Corso  v.6.3
     Shape of augmentation charge: PSQ
     Using radial grid of 1183 points,  6 beta functions with: 
                l(1) =   0
                l(2) =   0
                l(3) =   1
                l(4) =   1
                l(5) =   2
                l(6) =   2
     Q(r) pseudized with 0 coefficients 


     PseudoPot. # 2 for N  read from file:
     pseudo/N.pbe-n-kjpaw_psl.1.0.0.UPF
     MD5 check sum: 14c48229446f9f2d411169a3abcbc3fa
     Pseudo is Projector augmented-wave + core cor, Zval =  5.0
     Generated using &quot;atomic&quot; code by A. Dal Corso  v.6.3
     Shape of augmentation charge: PSQ
     Using radial grid of 1085 points,  4 beta functions with: 
                l(1) =   0
                l(2) =   0
                l(3) =   1
                l(4) =   1
     Q(r) pseudized with 0 coefficients 


     PseudoPot. # 3 for C  read from file:
     pseudo/C.pbe-n-kjpaw_psl.1.0.0.UPF
     MD5 check sum: 5f16ad9a65e90284d1d834d4ab3b0f7d
     Pseudo is Projector augmented-wave + core cor, Zval =  4.0
     Generated using &quot;atomic&quot; code by A. Dal Corso  v.6.3
     Shape of augmentation charge: PSQ
     Using radial grid of 1073 points,  4 beta functions with: 
                l(1) =   0
                l(2) =   0
                l(3) =   1
                l(4) =   1
     Q(r) pseudized with 0 coefficients 


     PseudoPot. # 4 for H  read from file:
     pseudo/H.pbe-kjpaw_psl.1.0.0.UPF
     MD5 check sum: d81a744832360e4a8af0b0b5b123bc2a
     Pseudo is Projector augmented-wave, Zval =  1.0
     Generated using &quot;atomic&quot; code by A. Dal Corso  v.6.3MaX
     Shape of augmentation charge: PSQ
     Using radial grid of  929 points,  2 beta functions with: 
                l(1) =   0
                l(2) =   0
     Q(r) pseudized with 0 coefficients 


     atomic species   valence    mass     pseudopotential
     Cr               14.00    51.99610     Cr( 1.00)
     N                 5.00    14.00670     N ( 1.00)
     C                 4.00    12.01100     C ( 1.00)
     H                 1.00     1.00800     H ( 1.00)

     No symmetry found



   Cartesian axes

     site n.     atom                  positions (alat units)
         1        Cr     tau(   1) = (  -0.1681591   0.2912601   0.8673998  )
         2        Cr     tau(   2) = (   0.3363182   0.0000000   0.8673998  )
         3        Cr     tau(   3) = (   0.0818405   0.1417518   0.8673993  )
         4        Cr     tau(   4) = (   0.1684970   0.2918454   0.6425759  )
         5        Cr     tau(   5) = (  -0.0815030   0.1411673   0.6425759  )
         6        Cr     tau(   6) = (   0.1630059   0.0000000   0.6425759  )
         7        N      tau(   7) = (   0.0000000   0.0000000   0.5261641  )
         8        N      tau(   8) = (   0.2500000   0.1443376   0.7485579  )
         9        N      tau(   9) = (   0.0000000   0.2886752   0.7485579  )
        10        Cr     tau(  10) = (  -0.1730001   0.2996450   1.3148727  )
        11        Cr     tau(  11) = (   0.3460003   0.0000000   1.3148727  )
        12        Cr     tau(  12) = (   0.0770029   0.1333729   1.3148745  )
        13        Cr     tau(  13) = (   0.1677092   0.2904808   1.0968932  )
        14        Cr     tau(  14) = (  -0.0822901   0.1425306   1.0968938  )
        15        Cr     tau(  15) = (   0.1645802   0.0000000   1.0968938  )
        16        N      tau(  16) = (   0.0000000   0.0000000   0.9808490  )
        17        N      tau(  17) = (   0.2500004   0.1443372   1.2145625  )
        18        N      tau(  18) = (  -0.0000005   0.2886753   1.2145625  )
        19        Cr     tau(  19) = (  -0.4181595   0.7242736   0.8673993  )
        20        Cr     tau(  20) = (   0.0863184   0.4330126   0.8674001  )
        21        Cr     tau(  21) = (  -0.1681593   0.5747652   0.8674001  )
        22        Cr     tau(  22) = (  -0.0815030   0.7248581   0.6425759  )
        23        Cr     tau(  23) = (  -0.3315030   0.5741800   0.6425759  )
        24        Cr     tau(  24) = (  -0.0869941   0.4330127   0.6425759  )
        25        N      tau(  25) = (  -0.2500000   0.4330127   0.5261641  )
        26        N      tau(  26) = (   0.0000000   0.5773503   0.7485581  )
        27        N      tau(  27) = (  -0.2500000   0.7216878   0.7485579  )
        28        Cr     tau(  28) = (  -0.4229971   0.7326525   1.3148745  )
        29        Cr     tau(  29) = (   0.0959968   0.4330121   1.3148749  )
        30        Cr     tau(  30) = (  -0.1729989   0.5663837   1.3148749  )
        31        Cr     tau(  31) = (  -0.0822898   0.7234940   1.0968932  )
        32        Cr     tau(  32) = (  -0.3322908   0.5755446   1.0968932  )
        33        Cr     tau(  33) = (  -0.0854193   0.4330133   1.0968932  )
        34        N      tau(  34) = (  -0.2500001   0.4330128   0.9808490  )
        35        N      tau(  35) = (   0.0000000   0.5773503   1.2145635  )
        36        N      tau(  36) = (  -0.2499996   0.7216882   1.2145625  )
        37        Cr     tau(  37) = (   0.3318407   0.2912602   0.8674001  )
        38        Cr     tau(  38) = (   0.8363191   0.0000000   0.8673993  )
        39        Cr     tau(  39) = (   0.5818409   0.1417524   0.8674001  )
        40        Cr     tau(  40) = (   0.6684970   0.2918454   0.6425759  )
        41        Cr     tau(  41) = (   0.4184970   0.1411673   0.6425759  )
        42        Cr     tau(  42) = (   0.6630059   0.0000000   0.6425759  )
        43        N      tau(  43) = (   0.5000000   0.0000000   0.5261641  )
        44        N      tau(  44) = (   0.7500000   0.1443376   0.7485579  )
        45        N      tau(  45) = (   0.5000000   0.2886751   0.7485581  )
        46        Cr     tau(  46) = (   0.3270011   0.2996417   1.3148749  )
        47        Cr     tau(  47) = (   0.8459942   0.0000000   1.3148745  )
        48        Cr     tau(  48) = (   0.5770021   0.1333704   1.3148749  )
        49        Cr     tau(  49) = (   0.6677091   0.2904819   1.0968932  )
        50        Cr     tau(  50) = (   0.4177102   0.1425314   1.0968932  )
        51        Cr     tau(  51) = (   0.6645817   0.0000000   1.0968932  )
        52        N      tau(  52) = (   0.5000001   0.0000000   0.9808490  )
        53        N      tau(  53) = (   0.7500001   0.1443381   1.2145625  )
        54        N      tau(  54) = (   0.5000000   0.2886751   1.2145635  )
        55        Cr     tau(  55) = (   0.0818409   0.7242730   0.8674001  )
        56        Cr     tau(  56) = (   0.5863184   0.4330128   0.8674001  )
        57        Cr     tau(  57) = (   0.3318409   0.5747653   0.8673998  )
        58        Cr     tau(  58) = (   0.4184970   0.7248581   0.6425759  )
        59        Cr     tau(  59) = (   0.1684970   0.5741800   0.6425759  )
        60        Cr     tau(  60) = (   0.4130059   0.4330127   0.6425759  )
        61        N      tau(  61) = (   0.2500000   0.4330127   0.5261641  )
        62        N      tau(  62) = (   0.5000000   0.5773502   0.7485579  )
        63        N      tau(  63) = (   0.2500000   0.7216878   0.7485579  )
        64        Cr     tau(  64) = (   0.0770021   0.7326550   1.3148749  )
        65        Cr     tau(  65) = (   0.5959968   0.4330133   1.3148749  )
        66        Cr     tau(  66) = (   0.3269999   0.5663804   1.3148727  )
        67        Cr     tau(  67) = (   0.4177099   0.7234948   1.0968938  )
        68        Cr     tau(  68) = (   0.1677091   0.5755435   1.0968932  )
        69        Cr     tau(  69) = (   0.4145807   0.4330121   1.0968932  )
        70        N      tau(  70) = (   0.2499999   0.4330126   0.9808490  )
        71        N      tau(  71) = (   0.4999995   0.5773501   1.2145625  )
        72        N      tau(  72) = (   0.2500001   0.7216873   1.2145625  )
        73        C      tau(  73) = (   0.0959968   0.4330121   1.5635703  )
        74        H      tau(  74) = (   0.0960044   0.4330077   1.6782720  )
        75        H      tau(  75) = (   0.1896478   0.3789427   1.5253282  )
        76        H      tau(  76) = (   0.0023408   0.3789427   1.5253406  )
        77        H      tau(  77) = (   0.0959943   0.5411553   1.5253406  )

     --------------------------------------------
     DFT-D3 Dispersion Correction (3-body terms):
     --------------------------------------------
       Reference C6 values for interpolation: 

         atom   Coordination number   C6
         H          0.912             6.05
         H          0.000            15.18
         C          0.000            98.23
         C          0.987            86.49
         C          1.998            58.72
         C          2.999            51.56
         C          3.984            36.41
         N          0.000            50.54
         N          0.994            44.25
         N          2.014            39.35
         N          2.990            31.16
         Cr         0.000          1381.48
         Cr         1.827           571.38
         Cr        10.619           306.69

       Values used:

         atom   Coordination number  R0_AB[au]  C6      C8
         Cr        12.627            3.252    306.69  28303.74
         Cr        12.627            3.252    306.69  28303.74
         Cr        12.627            3.252    306.69  28303.74
         Cr        10.143            3.252    306.69  28303.74
         Cr        10.143            3.252    306.69  28303.74
         Cr        10.143            3.252    306.69  28303.74
         N          3.022            2.478     31.29    690.36
         N          6.023            2.478     31.16    687.49
         N          6.023            2.478     31.16    687.49
         Cr         9.084            3.252    306.69  28303.74
         Cr         9.071            3.252    306.69  28303.74
         Cr         9.078            3.252    306.69  28303.74
         Cr        12.748            3.252    306.69  28303.74
         Cr        12.748            3.252    306.69  28303.74
         Cr        12.748            3.252    306.69  28303.74
         N          6.047            2.478     31.16    687.49
         N          6.032            2.478     31.16    687.49
         N          6.033            2.478     31.16    687.49
         Cr        12.627            3.252    306.69  28303.74
         Cr        12.627            3.252    306.69  28303.74
         Cr        12.627            3.252    306.69  28303.74
         Cr        10.143            3.252    306.69  28303.74
         Cr        10.143            3.252    306.69  28303.74
         Cr        10.143            3.252    306.69  28303.74
         N          3.022            2.478     31.29    690.36
         N          6.023            2.478     31.16    687.49
         N          6.023            2.478     31.16    687.49
         Cr         9.071            3.252    306.69  28303.74
         Cr         9.961            3.252    306.69  28303.74
         Cr         9.078            3.252    306.69  28303.74
         Cr        12.748            3.252    306.69  28303.74
         Cr        12.748            3.252    306.69  28303.74
         Cr        12.748            3.252    306.69  28303.74
         N          6.047            2.478     31.16    687.49
         N          6.033            2.478     31.16    687.49
         N          6.032            2.478     31.16    687.49
         Cr        12.627            3.252    306.69  28303.74
         Cr        12.627            3.252    306.69  28303.74
         Cr        12.627            3.252    306.69  28303.74
         Cr        10.143            3.252    306.69  28303.74
         Cr        10.143            3.252    306.69  28303.74
         Cr        10.143            3.252    306.69  28303.74
         N          3.022            2.478     31.29    690.36
         N          6.023            2.478     31.16    687.49
         N          6.023            2.478     31.16    687.49
         Cr         9.101            3.252    306.69  28303.74
         Cr         9.071            3.252    306.69  28303.74
         Cr         9.071            3.252    306.69  28303.74
         Cr        12.748            3.252    306.69  28303.74
         Cr        12.748            3.252    306.69  28303.74
         Cr        12.748            3.252    306.69  28303.74
         N          6.047            2.478     31.16    687.49
         N          6.032            2.478     31.16    687.49
         N          6.032            2.478     31.16    687.49
         Cr        12.627            3.252    306.69  28303.74
         Cr        12.627            3.252    306.69  28303.74
         Cr        12.627            3.252    306.69  28303.74
         Cr        10.143            3.252    306.69  28303.74
         Cr        10.143            3.252    306.69  28303.74
         Cr        10.143            3.252    306.69  28303.74
         N          3.022            2.478     31.29    690.36
         N          6.023            2.478     31.16    687.49
         N          6.023            2.478     31.16    687.49
         Cr         9.084            3.252    306.69  28303.74
         Cr         9.071            3.252    306.69  28303.74
         Cr         9.086            3.252    306.69  28303.74
         Cr        12.748            3.252    306.69  28303.74
         Cr        12.748            3.252    306.69  28303.74
         Cr        12.748            3.252    306.69  28303.74
         N          6.047            2.478     31.16    687.49
         N          6.032            2.478     31.16    687.49
         N          6.032            2.478     31.16    687.49
         C          4.687            2.750     36.41   1053.17
         H          0.997            2.062      6.18     74.75
         H          1.095            2.062      6.12     73.95
         H          1.083            2.062      6.12     74.03
         H          1.083            2.062      6.12     74.02

         Molecular C6 ( Ry / a.u.^6 ) =    974401.80


     number of k points=    10  Methfessel-Paxton smearing, width (Ry)=  0.0200
                       cart. coord. in units 2pi/alat
        k(    1) = (   0.0000000   0.0000000   0.0000000), wk =   0.1250000
        k(    2) = (   0.0000000   0.2886753   0.0000000), wk =   0.2500000
        k(    3) = (   0.0000000  -0.5773505   0.0000000), wk =   0.1250000
        k(    4) = (   0.2500000   0.4330129   0.0000000), wk =   0.2500000
        k(    5) = (  -0.2500000   0.1443376   0.0000000), wk =   0.2500000
        k(    6) = (   0.2500000   0.1443376   0.0000000), wk =   0.2500000
        k(    7) = (   0.5000000  -0.2886753   0.0000000), wk =   0.1250000
        k(    8) = (  -0.5000000  -0.2886753   0.0000000), wk =   0.1250000
        k(    9) = (  -0.2500000   0.4330129   0.0000000), wk =   0.2500000
        k(   10) = (   0.5000000  -0.0000000   0.0000000), wk =   0.2500000

     Dense  grid:  4502593 G-vectors     FFT dimensions: ( 180, 180, 375)

     Smooth grid:   866593 G-vectors     FFT dimensions: (  96,  96, 216)

     Estimated max dynamical RAM per process >     867.27 MB

     Estimated total dynamical RAM >      50.98 GB

     Initial potential from superposition of free atoms

     starting charge     799.9627, renormalised to     800.0000

     negative rho (up, down):  4.119E-04 0.000E+00
     Starting wfcs are  584 randomized atomic wfcs
     Checking if some PAW data can be deallocated... 

     total cpu time spent up to now is       19.8 secs

     Self-consistent Calculation

     iteration #  1     ecut=    70.00 Ry     beta= 0.20
     Davidson diagonalization with overlap
     ethr =  1.00E-02,  avg # of iterations =  2.7

     negative rho (up, down):  1.635E-04 0.000E+00

     total cpu time spent up to now is       66.3 secs

     total energy              =  -12610.62097826 Ry
     estimated scf accuracy    <      29.17032635 Ry

     iteration #  2     ecut=    70.00 Ry     beta= 0.20
     Davidson diagonalization with overlap
     ethr =  3.65E-03,  avg # of iterations =  6.4

     negative rho (up, down):  4.779E-04 0.000E+00

     total cpu time spent up to now is      125.6 secs

     total energy              =  -12600.31811138 Ry
     estimated scf accuracy    <     661.18543799 Ry

     iteration #  3     ecut=    70.00 Ry     beta= 0.20
     Davidson diagonalization with overlap
     ethr =  3.65E-03,  avg # of iterations =  2.8

     negative rho (up, down):  6.945E-04 0.000E+00

     total cpu time spent up to now is      167.7 secs

     total energy              =  -12608.91671493 Ry
     estimated scf accuracy    <     478.35927685 Ry

     iteration #  4     ecut=    70.00 Ry     beta= 0.20
     Davidson diagonalization with overlap
     ethr =  3.65E-03,  avg # of iterations =  2.0

     negative rho (up, down):  3.513E-04 0.000E+00

     total cpu time spent up to now is      208.4 secs

     total energy              =  -12614.71979510 Ry
     estimated scf accuracy    <      91.20503697 Ry

     iteration #  5     ecut=    70.00 Ry     beta= 0.20
     Davidson diagonalization with overlap
     ethr =  3.65E-03,  avg # of iterations =  1.6

     negative rho (up, down):  4.099E-04 0.000E+00

     total cpu time spent up to now is      248.1 secs

     total energy              =  -12615.44153217 Ry
     estimated scf accuracy    <      19.07034852 Ry

     iteration #  6     ecut=    70.00 Ry     beta= 0.20
     Davidson diagonalization with overlap
     ethr =  2.38E-03,  avg # of iterations =  1.4

     negative rho (up, down):  5.023E-04 0.000E+00

     total cpu time spent up to now is      288.0 secs

     total energy              =  -12616.15785488 Ry
     estimated scf accuracy    <       3.49751587 Ry

     iteration #  7     ecut=    70.00 Ry     beta= 0.20
     Davidson diagonalization with overlap
     ethr =  4.37E-04,  avg # of iterations = 12.0

     negative rho (up, down):  4.984E-04 0.000E+00

     total cpu time spent up to now is      339.4 secs

     total energy              =  -12616.33309518 Ry
     estimated scf accuracy    <       1.96227732 Ry

     iteration #  8     ecut=    70.00 Ry     beta= 0.20
     Davidson diagonalization with overlap
     ethr =  2.45E-04,  avg # of iterations =  2.9

     negative rho (up, down):  5.203E-04 0.000E+00

     total cpu time spent up to now is      381.0 secs

     total energy              =  -12616.35365360 Ry
     estimated scf accuracy    <       0.73900853 Ry

     iteration #  9     ecut=    70.00 Ry     beta= 0.20
     Davidson diagonalization with overlap
     ethr =  9.24E-05,  avg # of iterations =  6.8

     negative rho (up, down):  4.433E-04 0.000E+00

     total cpu time spent up to now is      428.1 secs

     total energy              =  -12616.34999477 Ry
     estimated scf accuracy    <       0.73315647 Ry

     iteration # 10     ecut=    70.00 Ry     beta= 0.20
     Davidson diagonalization with overlap
     ethr =  9.16E-05,  avg # of iterations =  1.5

     negative rho (up, down):  3.885E-04 0.000E+00

     total cpu time spent up to now is      466.8 secs

     total energy              =  -12616.34477678 Ry
     estimated scf accuracy    <       0.67350338 Ry

     iteration # 11     ecut=    70.00 Ry     beta= 0.20
     Davidson diagonalization with overlap
     ethr =  8.42E-05,  avg # of iterations =  1.9

     negative rho (up, down):  4.004E-04 0.000E+00

     total cpu time spent up to now is      507.7 secs

     total energy              =  -12616.36120046 Ry
     estimated scf accuracy    <       0.19373718 Ry

     iteration # 12     ecut=    70.00 Ry     beta= 0.20
     Davidson diagonalization with overlap
     ethr =  2.42E-05,  avg # of iterations = 12.0

     negative rho (up, down):  2.791E-04 0.000E+00

     total cpu time spent up to now is      565.1 secs

     total energy              =  -12616.35441404 Ry
     estimated scf accuracy    <       0.57664651 Ry

     iteration # 13     ecut=    70.00 Ry     beta= 0.20
     Davidson diagonalization with overlap
     ethr =  2.42E-05,  avg # of iterations =  1.1

     negative rho (up, down):  2.473E-04 0.000E+00

     total cpu time spent up to now is      601.6 secs

     total energy              =  -12616.36494108 Ry
     estimated scf accuracy    <       0.11430418 Ry

     iteration # 14     ecut=    70.00 Ry     beta= 0.20
     Davidson diagonalization with overlap
     ethr =  1.43E-05,  avg # of iterations =  1.0

     negative rho (up, down):  2.182E-04 0.000E+00

     total cpu time spent up to now is      637.6 secs

     total energy              =  -12616.36581462 Ry
     estimated scf accuracy    <       0.04170604 Ry

     iteration # 15     ecut=    70.00 Ry     beta= 0.20
     Davidson diagonalization with overlap
     ethr =  5.21E-06,  avg # of iterations =  4.5

     negative rho (up, down):  2.017E-04 0.000E+00

     total cpu time spent up to now is      681.2 secs

     total energy              =  -12616.36496392 Ry
     estimated scf accuracy    <       0.14846644 Ry

     iteration # 16     ecut=    70.00 Ry     beta= 0.20
     Davidson diagonalization with overlap
     ethr =  5.21E-06,  avg # of iterations =  1.1

     negative rho (up, down):  1.983E-04 0.000E+00

     total cpu time spent up to now is      717.9 secs

     total energy              =  -12616.36645508 Ry
     estimated scf accuracy    <       0.03329186 Ry

     iteration # 17     ecut=    70.00 Ry     beta= 0.20
     Davidson diagonalization with overlap
     ethr =  4.16E-06,  avg # of iterations =  1.9

     negative rho (up, down):  2.017E-04 0.000E+00

     total cpu time spent up to now is      758.4 secs

     total energy              =  -12616.36598745 Ry
     estimated scf accuracy    <       0.07045066 Ry

     iteration # 18     ecut=    70.00 Ry     beta= 0.20
     Davidson diagonalization with overlap
     ethr =  4.16E-06,  avg # of iterations =  1.1

     negative rho (up, down):  2.036E-04 0.000E+00

     total cpu time spent up to now is      795.0 secs

     total energy              =  -12616.36751128 Ry
     estimated scf accuracy    <       0.03706465 Ry

     iteration # 19     ecut=    70.00 Ry     beta= 0.20
     Davidson diagonalization with overlap
     ethr =  4.16E-06,  avg # of iterations =  1.0

     negative rho (up, down):  2.047E-04 0.000E+00

     total cpu time spent up to now is      830.8 secs

     total energy              =  -12616.36792588 Ry
     estimated scf accuracy    <       0.01799665 Ry

     iteration # 20     ecut=    70.00 Ry     beta= 0.20
     Davidson diagonalization with overlap
     ethr =  2.25E-06,  avg # of iterations =  1.4

     negative rho (up, down):  2.068E-04 0.000E+00

     total cpu time spent up to now is      869.0 secs

     total energy              =  -12616.36799542 Ry
     estimated scf accuracy    <       0.01588916 Ry

     iteration # 21     ecut=    70.00 Ry     beta= 0.20
     Davidson diagonalization with overlap
     ethr =  1.99E-06,  avg # of iterations =  1.0

     negative rho (up, down):  2.100E-04 0.000E+00

     total cpu time spent up to now is      904.9 secs

     total energy              =  -12616.36836172 Ry
     estimated scf accuracy    <       0.00443527 Ry

     iteration # 22     ecut=    70.00 Ry     beta= 0.20
     Davidson diagonalization with overlap
     ethr =  5.54E-07,  avg # of iterations =  1.4

     negative rho (up, down):  2.104E-04 0.000E+00

     total cpu time spent up to now is      942.9 secs

     total energy              =  -12616.36818047 Ry
     estimated scf accuracy    <       0.01593879 Ry

     iteration # 23     ecut=    70.00 Ry     beta= 0.20
     Davidson diagonalization with overlap
     ethr =  5.54E-07,  avg # of iterations =  1.3

     negative rho (up, down):  2.120E-04 0.000E+00

     total cpu time spent up to now is      981.6 secs

     total energy              =  -12616.36852569 Ry
     estimated scf accuracy    <       0.00369502 Ry

     iteration # 24     ecut=    70.00 Ry     beta= 0.20
     Davidson diagonalization with overlap
     ethr =  4.62E-07,  avg # of iterations =  1.1

     negative rho (up, down):  2.129E-04 0.000E+00

     total cpu time spent up to now is     1018.6 secs

     total energy              =  -12616.36856264 Ry
     estimated scf accuracy    <       0.00322571 Ry

     iteration # 25     ecut=    70.00 Ry     beta= 0.20
     Davidson diagonalization with overlap
     ethr =  4.03E-07,  avg # of iterations =  1.0

     negative rho (up, down):  2.139E-04 0.000E+00

     total cpu time spent up to now is     1054.4 secs

     total energy              =  -12616.36845615 Ry
     estimated scf accuracy    <       0.01027572 Ry

     iteration # 26     ecut=    70.00 Ry     beta= 0.20
     Davidson diagonalization with overlap
     ethr =  4.03E-07,  avg # of iterations =  1.0

     negative rho (up, down):  2.140E-04 0.000E+00

     total cpu time spent up to now is     1090.3 secs

     total energy              =  -12616.36861957 Ry
     estimated scf accuracy    <       0.00337697 Ry

     iteration # 27     ecut=    70.00 Ry     beta= 0.20
     Davidson diagonalization with overlap
     ethr =  4.03E-07,  avg # of iterations =  1.0

     negative rho (up, down):  2.146E-04 0.000E+00

     total cpu time spent up to now is     1126.2 secs

     total energy              =  -12616.36860684 Ry
     estimated scf accuracy    <       0.00320354 Ry

     iteration # 28     ecut=    70.00 Ry     beta= 0.20
     Davidson diagonalization with overlap
     ethr =  4.00E-07,  avg # of iterations =  1.0

     negative rho (up, down):  2.152E-04 0.000E+00

     total cpu time spent up to now is     1162.0 secs

     total energy              =  -12616.36862973 Ry
     estimated scf accuracy    <       0.00319503 Ry

     iteration # 29     ecut=    70.00 Ry     beta= 0.20
     Davidson diagonalization with overlap
     ethr =  3.99E-07,  avg # of iterations =  1.0

     negative rho (up, down):  2.153E-04 0.000E+00

     total cpu time spent up to now is     1198.0 secs

     total energy              =  -12616.36868778 Ry
     estimated scf accuracy    <       0.00118301 Ry

     iteration # 30     ecut=    70.00 Ry     beta= 0.20
     Davidson diagonalization with overlap
     ethr =  1.48E-07,  avg # of iterations =  1.0

     negative rho (up, down):  2.158E-04 0.000E+00

     total cpu time spent up to now is     1233.8 secs

     total energy              =  -12616.36869009 Ry
     estimated scf accuracy    <       0.00079842 Ry

     iteration # 31     ecut=    70.00 Ry     beta= 0.20
     Davidson diagonalization with overlap
     ethr =  9.98E-08,  avg # of iterations =  1.0

     negative rho (up, down):  2.150E-04 0.000E+00

     total cpu time spent up to now is     1269.7 secs

     total energy              =  -12616.36872705 Ry
     estimated scf accuracy    <       0.00044187 Ry

     iteration # 32     ecut=    70.00 Ry     beta= 0.20
     Davidson diagonalization with overlap
     ethr =  5.52E-08,  avg # of iterations =  1.0

     negative rho (up, down):  2.156E-04 0.000E+00

     total cpu time spent up to now is     1305.5 secs

     total energy              =  -12616.36870681 Ry
     estimated scf accuracy    <       0.00074436 Ry

     iteration # 33     ecut=    70.00 Ry     beta= 0.20
     Davidson diagonalization with overlap
     ethr =  5.52E-08,  avg # of iterations =  1.0

     negative rho (up, down):  2.154E-04 0.000E+00

     total cpu time spent up to now is     1341.4 secs

     total energy              =  -12616.36872582 Ry
     estimated scf accuracy    <       0.00043762 Ry

     iteration # 34     ecut=    70.00 Ry     beta= 0.20
     Davidson diagonalization with overlap
     ethr =  5.47E-08,  avg # of iterations =  1.0

     negative rho (up, down):  2.153E-04 0.000E+00

     total cpu time spent up to now is     1377.3 secs

     total energy              =  -12616.36873569 Ry
     estimated scf accuracy    <       0.00028331 Ry

     iteration # 35     ecut=    70.00 Ry     beta= 0.20
     Davidson diagonalization with overlap
     ethr =  3.54E-08,  avg # of iterations =  1.0

     negative rho (up, down):  2.154E-04 0.000E+00

     total cpu time spent up to now is     1413.1 secs

     total energy              =  -12616.36872241 Ry
     estimated scf accuracy    <       0.00083822 Ry

     iteration # 36     ecut=    70.00 Ry     beta= 0.20
     Davidson diagonalization with overlap
     ethr =  3.54E-08,  avg # of iterations =  1.3

     negative rho (up, down):  2.153E-04 0.000E+00

     total cpu time spent up to now is     1452.2 secs

     total energy              =  -12616.36872735 Ry
     estimated scf accuracy    <       0.00111943 Ry

     iteration # 37     ecut=    70.00 Ry     beta= 0.20
     Davidson diagonalization with overlap
     ethr =  3.54E-08,  avg # of iterations =  1.0

     negative rho (up, down):  2.154E-04 0.000E+00

     total cpu time spent up to now is     1488.1 secs

     total energy              =  -12616.36874261 Ry
     estimated scf accuracy    <       0.00035487 Ry

     iteration # 38     ecut=    70.00 Ry     beta= 0.20
     Davidson diagonalization with overlap
     ethr =  3.54E-08,  avg # of iterations =  1.0

     negative rho (up, down):  2.155E-04 0.000E+00

     total cpu time spent up to now is     1523.8 secs

     total energy              =  -12616.36873644 Ry
     estimated scf accuracy    <       0.00040205 Ry

     iteration # 39     ecut=    70.00 Ry     beta= 0.20
     Davidson diagonalization with overlap
     ethr =  3.54E-08,  avg # of iterations =  1.0

     negative rho (up, down):  2.155E-04 0.000E+00

     total cpu time spent up to now is     1559.6 secs

     total energy              =  -12616.36874397 Ry
     estimated scf accuracy    <       0.00039737 Ry

     iteration # 40     ecut=    70.00 Ry     beta= 0.20
     Davidson diagonalization with overlap
     ethr =  3.54E-08,  avg # of iterations =  1.0

     negative rho (up, down):  2.155E-04 0.000E+00

     total cpu time spent up to now is     1595.4 secs

     total energy              =  -12616.36874423 Ry
     estimated scf accuracy    <       0.00018168 Ry

     iteration # 41     ecut=    70.00 Ry     beta= 0.20
     Davidson diagonalization with overlap
     ethr =  2.27E-08,  avg # of iterations =  1.0

     negative rho (up, down):  2.155E-04 0.000E+00

     total cpu time spent up to now is     1631.3 secs

     total energy              =  -12616.36875019 Ry
     estimated scf accuracy    <       0.00021217 Ry

     iteration # 42     ecut=    70.00 Ry     beta= 0.20
     Davidson diagonalization with overlap
     ethr =  2.27E-08,  avg # of iterations =  1.0

     negative rho (up, down):  2.155E-04 0.000E+00

     total cpu time spent up to now is     1667.2 secs

     total energy              =  -12616.36875182 Ry
     estimated scf accuracy    <       0.00008689 Ry

     iteration # 43     ecut=    70.00 Ry     beta= 0.20
     Davidson diagonalization with overlap
     ethr =  1.09E-08,  avg # of iterations =  1.0

     negative rho (up, down):  2.155E-04 0.000E+00

     total cpu time spent up to now is     1702.9 secs

     total energy              =  -12616.36875202 Ry
     estimated scf accuracy    <       0.00010607 Ry

     iteration # 44     ecut=    70.00 Ry     beta= 0.20
     Davidson diagonalization with overlap
     ethr =  1.09E-08,  avg # of iterations =  1.0

     negative rho (up, down):  2.156E-04 0.000E+00

     total cpu time spent up to now is     1738.9 secs

     total energy              =  -12616.36875509 Ry
     estimated scf accuracy    <       0.00003910 Ry

     iteration # 45     ecut=    70.00 Ry     beta= 0.20
     Davidson diagonalization with overlap
     ethr =  4.89E-09,  avg # of iterations =  1.0

     negative rho (up, down):  2.156E-04 0.000E+00

     total cpu time spent up to now is     1774.8 secs

     total energy              =  -12616.36875592 Ry
     estimated scf accuracy    <       0.00007883 Ry

     iteration # 46     ecut=    70.00 Ry     beta= 0.20
     Davidson diagonalization with overlap
     ethr =  4.89E-09,  avg # of iterations =  1.0

     negative rho (up, down):  2.156E-04 0.000E+00

     total cpu time spent up to now is     1810.7 secs

     total energy              =  -12616.36875437 Ry
     estimated scf accuracy    <       0.00012713 Ry

     iteration # 47     ecut=    70.00 Ry     beta= 0.20
     Davidson diagonalization with overlap
     ethr =  4.89E-09,  avg # of iterations =  1.0

     negative rho (up, down):  2.157E-04 0.000E+00

     total cpu time spent up to now is     1846.7 secs

     total energy              =  -12616.36875732 Ry
     estimated scf accuracy    <       0.00002792 Ry

     iteration # 48     ecut=    70.00 Ry     beta= 0.20
     Davidson diagonalization with overlap
     ethr =  3.49E-09,  avg # of iterations =  1.0

     negative rho (up, down):  2.157E-04 0.000E+00

     total cpu time spent up to now is     1882.4 secs

     total energy              =  -12616.36875650 Ry
     estimated scf accuracy    <       0.00002335 Ry

     iteration # 49     ecut=    70.00 Ry     beta= 0.20
     Davidson diagonalization with overlap
     ethr =  2.92E-09,  avg # of iterations =  1.0

     negative rho (up, down):  2.157E-04 0.000E+00

     total cpu time spent up to now is     1918.5 secs

     total energy              =  -12616.36875646 Ry
     estimated scf accuracy    <       0.00011177 Ry

     iteration # 50     ecut=    70.00 Ry     beta= 0.20
     Davidson diagonalization with overlap
     ethr =  2.92E-09,  avg # of iterations =  1.0

     negative rho (up, down):  2.159E-04 0.000E+00

     total cpu time spent up to now is     1954.3 secs

     total energy              =  -12616.36875786 Ry
     estimated scf accuracy    <       0.00003757 Ry

     iteration # 51     ecut=    70.00 Ry     beta= 0.20
     Davidson diagonalization with overlap
     ethr =  2.92E-09,  avg # of iterations =  1.0

     negative rho (up, down):  2.158E-04 0.000E+00

     total cpu time spent up to now is     1990.2 secs

     total energy              =  -12616.36875715 Ry
     estimated scf accuracy    <       0.00004188 Ry

     iteration # 52     ecut=    70.00 Ry     beta= 0.20
     Davidson diagonalization with overlap
     ethr =  2.92E-09,  avg # of iterations =  1.0

     negative rho (up, down):  2.159E-04 0.000E+00

     total cpu time spent up to now is     2026.1 secs

     total energy              =  -12616.36875866 Ry
     estimated scf accuracy    <       0.00001265 Ry

     iteration # 53     ecut=    70.00 Ry     beta= 0.20
     Davidson diagonalization with overlap
     ethr =  1.58E-09,  avg # of iterations =  1.0

     negative rho (up, down):  2.158E-04 0.000E+00

     total cpu time spent up to now is     2062.0 secs

     total energy              =  -12616.36875825 Ry
     estimated scf accuracy    <       0.00001850 Ry

     iteration # 54     ecut=    70.00 Ry     beta= 0.20
     Davidson diagonalization with overlap
     ethr =  1.58E-09,  avg # of iterations =  1.0

     negative rho (up, down):  2.159E-04 0.000E+00

     total cpu time spent up to now is     2098.0 secs

     total energy              =  -12616.36875866 Ry
     estimated scf accuracy    <       0.00001315 Ry

     iteration # 55     ecut=    70.00 Ry     beta= 0.20
     Davidson diagonalization with overlap
     ethr =  1.58E-09,  avg # of iterations =  1.0

     negative rho (up, down):  2.160E-04 0.000E+00

     total cpu time spent up to now is     2133.8 secs

     total energy              =  -12616.36875907 Ry
     estimated scf accuracy    <       0.00001691 Ry

     iteration # 56     ecut=    70.00 Ry     beta= 0.20
     Davidson diagonalization with overlap
     ethr =  1.58E-09,  avg # of iterations =  1.0

     negative rho (up, down):  2.159E-04 0.000E+00

     total cpu time spent up to now is     2169.7 secs

     total energy              =  -12616.36875884 Ry
     estimated scf accuracy    <       0.00000737 Ry

     iteration # 57     ecut=    70.00 Ry     beta= 0.20
     Davidson diagonalization with overlap
     ethr =  9.21E-10,  avg # of iterations =  1.0

     negative rho (up, down):  2.159E-04 0.000E+00

     total cpu time spent up to now is     2205.7 secs

     total energy              =  -12616.36875907 Ry
     estimated scf accuracy    <       0.00000764 Ry

     iteration # 58     ecut=    70.00 Ry     beta= 0.20
     Davidson diagonalization with overlap
     ethr =  9.21E-10,  avg # of iterations =  1.0

     negative rho (up, down):  2.160E-04 0.000E+00

     total cpu time spent up to now is     2241.6 secs

     total energy              =  -12616.36875926 Ry
     estimated scf accuracy    <       0.00000332 Ry

     iteration # 59     ecut=    70.00 Ry     beta= 0.20
     Davidson diagonalization with overlap
     ethr =  4.14E-10,  avg # of iterations =  1.0

     negative rho (up, down):  2.161E-04 0.000E+00

     total cpu time spent up to now is     2277.6 secs

     total energy              =  -12616.36875915 Ry
     estimated scf accuracy    <       0.00002090 Ry

     iteration # 60     ecut=    70.00 Ry     beta= 0.20
     Davidson diagonalization with overlap
     ethr =  4.14E-10,  avg # of iterations =  1.0

     negative rho (up, down):  2.161E-04 0.000E+00

     total cpu time spent up to now is     2313.4 secs

     total energy              =  -12616.36875941 Ry
     estimated scf accuracy    <       0.00000300 Ry

     iteration # 61     ecut=    70.00 Ry     beta= 0.20
     Davidson diagonalization with overlap
     ethr =  3.75E-10,  avg # of iterations =  1.0

     negative rho (up, down):  2.160E-04 0.000E+00

     total cpu time spent up to now is     2349.3 secs

     total energy              =  -12616.36875937 Ry
     estimated scf accuracy    <       0.00000062 Ry

     iteration # 62     ecut=    70.00 Ry     beta= 0.20
     Davidson diagonalization with overlap
     ethr =  7.78E-11,  avg # of iterations =  4.5

     negative rho (up, down):  2.161E-04 0.000E+00

     total cpu time spent up to now is     2393.1 secs

     total energy              =  -12616.36875933 Ry
     estimated scf accuracy    <       0.00000693 Ry

     iteration # 63     ecut=    70.00 Ry     beta= 0.20
     Davidson diagonalization with overlap
     ethr =  7.78E-11,  avg # of iterations =  3.0

     negative rho (up, down):  2.161E-04 0.000E+00

     total cpu time spent up to now is     2434.5 secs

     total energy              =  -12616.36875948 Ry
     estimated scf accuracy    <       0.00000159 Ry

     iteration # 64     ecut=    70.00 Ry     beta= 0.20
     Davidson diagonalization with overlap
     ethr =  7.78E-11,  avg # of iterations =  1.1

     negative rho (up, down):  2.161E-04 0.000E+00

     total cpu time spent up to now is     2471.5 secs

     total energy              =  -12616.36875950 Ry
     estimated scf accuracy    <       0.00000070 Ry

     iteration # 65     ecut=    70.00 Ry     beta= 0.20
     Davidson diagonalization with overlap
     ethr =  7.78E-11,  avg # of iterations =  1.1

     negative rho (up, down):  2.161E-04 0.000E+00

     total cpu time spent up to now is     2508.2 secs

     total energy              =  -12616.36875951 Ry
     estimated scf accuracy    <       0.00000051 Ry

     iteration # 66     ecut=    70.00 Ry     beta= 0.20
     Davidson diagonalization with overlap
     ethr =  6.43E-11,  avg # of iterations =  1.0

     negative rho (up, down):  2.161E-04 0.000E+00

     total cpu time spent up to now is     2543.9 secs

     total energy              =  -12616.36875952 Ry
     estimated scf accuracy    <       0.00000013 Ry

     iteration # 67     ecut=    70.00 Ry     beta= 0.20
     Davidson diagonalization with overlap
     ethr =  1.58E-11,  avg # of iterations =  3.8

     negative rho (up, down):  2.161E-04 0.000E+00

     total cpu time spent up to now is     2585.6 secs

     total energy              =  -12616.36875950 Ry
     estimated scf accuracy    <       0.00000063 Ry

     iteration # 68     ecut=    70.00 Ry     beta= 0.20
     Davidson diagonalization with overlap
     ethr =  1.58E-11,  avg # of iterations =  1.8

     negative rho (up, down):  2.161E-04 0.000E+00

     total cpu time spent up to now is     2625.6 secs

     total energy              =  -12616.36875952 Ry
     estimated scf accuracy    <       0.00000025 Ry

     iteration # 69     ecut=    70.00 Ry     beta= 0.20
     Davidson diagonalization with overlap
     ethr =  1.58E-11,  avg # of iterations =  1.0

     negative rho (up, down):  2.161E-04 0.000E+00

     total cpu time spent up to now is     2661.4 secs

     total energy              =  -12616.36875952 Ry
     estimated scf accuracy    <       0.00000002 Ry

     iteration # 70     ecut=    70.00 Ry     beta= 0.20
     Davidson diagonalization with overlap
     ethr =  2.73E-12,  avg # of iterations =  2.5

     negative rho (up, down):  2.161E-04 0.000E+00

     total cpu time spent up to now is     2701.9 secs

     total energy              =  -12616.36875952 Ry
     estimated scf accuracy    <       0.00000003 Ry

     iteration # 71     ecut=    70.00 Ry     beta= 0.20
     Davidson diagonalization with overlap
     ethr =  2.73E-12,  avg # of iterations =  1.2

     negative rho (up, down):  2.161E-04 0.000E+00

     total cpu time spent up to now is     2740.1 secs

     total energy              =  -12616.36875952 Ry
     estimated scf accuracy    <       0.00000003 Ry

     iteration # 72     ecut=    70.00 Ry     beta= 0.20
     Davidson diagonalization with overlap
     ethr =  2.73E-12,  avg # of iterations =  1.0

     negative rho (up, down):  2.161E-04 0.000E+00

     total cpu time spent up to now is     2775.8 secs

     End of self-consistent calculation

          k = 0.0000 0.0000 0.0000 (108303 PWs)   bands (ev):

   -66.9999 -66.9602 -66.9594 -66.9590 -66.9518 -66.9507 -66.9502 -66.9481
   -66.9258 -66.9256 -66.9250 -66.9226 -66.9212 -66.9186 -66.9169 -66.9162
   -66.9150 -66.9147 -66.9138 -66.9046 -66.9017 -66.9013 -66.8979 -66.8948
   -66.7478 -66.7188 -66.7183 -66.7180 -66.7115 -66.7113 -66.7113 -66.6950
   -66.6946 -66.6943 -66.6883 -66.6881 -66.6593 -66.6331 -66.6202 -66.6193
   -66.6088 -66.5930 -66.5873 -66.5816 -66.5773 -66.5754 -66.5725 -66.5645
   -38.8042 -38.7777 -38.7758 -38.7752 -38.6750 -38.6747 -38.6732 -38.6356
   -38.6348 -38.6199 -38.6191 -38.6179 -38.5948 -38.5645 -38.5632 -38.5603
   -38.5415 -38.5406 -38.5400 -38.5146 -38.5110 -38.5087 -38.4771 -38.4764
   -38.4721 -38.4716 -38.4701 -38.4632 -38.3891 -38.3794 -38.3719 -38.3713
   -38.3703 -38.3671 -38.3664 -38.3653 -38.3639 -38.3634 -38.3272 -38.3269
   -38.3263 -38.3105 -38.3100 -38.3086 -38.2881 -38.2660 -38.2654 -38.2644
   -38.2635 -38.2620 -38.2619 -38.2615 -38.2613 -38.2482 -38.2437 -38.2437
   -38.2381 -38.2371 -38.2323 -38.2312 -38.2303 -38.2301 -38.2297 -38.2237
   -38.2159 -38.2150 -38.2133 -38.2089 -38.2035 -38.2008 -38.1999 -38.1588
   -38.1511 -38.1484 -38.1482 -38.1444 -38.1419 -38.1415 -38.1373 -38.1361
   -38.1222 -38.1141 -38.1126 -38.1111 -38.0963 -38.0958 -38.0941 -38.0841
   -38.0795 -38.0787 -38.0682 -38.0553 -38.0534 -38.0489 -38.0486 -38.0461
   -38.0400 -38.0352 -38.0309 -38.0284 -38.0266 -38.0041 -38.0035 -38.0032
   -37.9696 -37.9690 -37.9622 -37.9618 -37.9616 -37.9510 -37.9500 -37.9438
   -37.9436 -37.9417 -37.9408 -37.9278 -37.9252 -37.9213 -37.9165 -37.9091
   -37.9084 -37.9002 -37.8997 -37.8985 -37.8662 -37.8661 -37.8659 -37.8647
   -37.8646 -37.8643 -37.8368 -37.8362 -37.8358 -37.8168 -37.8075 -37.8061
   -37.7138 -37.6975 -37.6940 -37.6800 -37.6724 -37.6701 -37.6549 -37.6524
   -12.5018 -12.0333 -11.7982 -11.7981 -11.7974 -11.6579 -11.6510 -11.6463
   -11.6284 -11.6262 -11.6230 -11.3474 -11.3440 -11.3396 -11.2671 -11.2364
   -11.2338 -11.2308 -11.0045 -10.9811  -8.9890  -8.7116  -8.7111  -8.7109
    -8.6535  -3.0048  -3.0027  -3.0012  -2.7927  -2.7604  -2.7597  -2.5664
    -2.5654  -2.5646  -2.5550  -2.5398  -2.5384  -2.4769  -2.4200  -2.4089
    -2.4059  -2.3254  -2.3211  -2.3190  -2.2390  -2.2381  -1.7873  -1.7772
    -1.7695  -1.6498  -1.6344  -1.5804  -1.5613  -1.5580  -1.5153  -1.4857
    -1.4273  -1.4258  -1.4142  -1.3936  -1.3876  -1.3380  -1.3257  -1.3036
    -1.2891  -1.2810  -1.2762  -1.2267  -1.2088  -1.2073  -1.0877  -1.0851
    -0.9837  -0.9188  -0.9105  -0.9103  -0.9001  -0.8954  -0.8503  -0.8246
    -0.8234  -0.8212  -0.6861  -0.6766  -0.6715  -0.4358  -0.4332  -0.4328
     0.6591   1.2248   1.2252   1.2256   1.4678   1.4678   1.4681   1.5451
     1.5615   1.5615   1.5837   1.5842   1.5845   1.6047   1.6050   1.6054
     1.7753   1.7792   1.7802   2.0660   2.0683   2.0689   2.1933   2.1955
     2.1962   2.2250   2.3419   2.3488   2.3497   2.4407   2.4412   2.4437
     2.4536   2.4545   2.4585   2.5147   2.5174   2.5175   2.5354   2.6975
     2.6977   2.7965   2.8003   2.8035   3.1538   3.1554   3.1960   3.2873
     3.2875   3.3491   3.3515   3.3530   3.3663   3.3685   3.3722   3.4818
     3.4851   3.4975   3.5147   3.5569   3.5687   3.6435   3.6715   3.6744
     3.6773   3.6944   3.6972   3.7197   3.7298   3.7314   3.7328   3.8279
     3.8320   3.8342   3.9863   3.9912   4.0357   4.1378   4.1438   4.1481
     4.1602   4.1623   4.2851   4.3068   4.3237   4.3291   4.3521   4.3823
     4.3912   4.4183   4.4217   4.4261   4.4369   4.4913   4.5019   4.5130
     4.5505   4.5514   4.6428   4.7022   4.7070   4.7157   4.7416   4.7868
     4.7887   4.8229   4.8395   4.8446   4.8929   4.8930   4.8986   4.9542
     4.9596   4.9883   5.0167   5.0188   5.0274   5.1313   5.1430   5.1660
     5.2348   5.2754   5.3159   5.3938   5.3947   5.3966   5.5039   5.5065
     5.5487   5.5593   5.5677   5.5701   5.5703   5.6017   5.6966   5.6995
     5.7031   5.7085   5.7148   5.7216   5.7292   5.7305   5.7630   5.7673
     5.8184   5.8447   5.8625   5.8675   5.8687   5.8707   5.8734   5.8972
     5.9134   5.9308   5.9917   5.9966   5.9988   6.0110   6.0141   6.0169
     6.0183   6.0438   6.0709   6.0716   6.0721   6.1142   6.1239   6.1615
     6.2060   6.2093   6.2196   6.2204   6.2241   6.2660   6.2665   6.2710
     6.2750   6.2992   6.3181   6.3217   6.3234   6.3580   6.3637   6.4370
     6.5339   6.5746   6.5755   6.5772   6.6313   6.6343   6.6548   6.6732
     6.6770   6.7146   6.7206   6.7215   6.7271   6.7334   6.7752   6.8389

          k = 0.0000 0.2887 0.0000 (108355 PWs)   bands (ev):

   -66.9964 -66.9725 -66.9635 -66.9623 -66.9462 -66.9456 -66.9441 -66.9384
   -66.9298 -66.9283 -66.9274 -66.9247 -66.9239 -66.9208 -66.9174 -66.9167
   -66.9142 -66.9113 -66.9086 -66.9054 -66.9026 -66.9008 -66.8984 -66.8956
   -66.7451 -66.7274 -66.7211 -66.7203 -66.7076 -66.7072 -66.7033 -66.6967
   -66.6960 -66.6937 -66.6899 -66.6892 -66.6587 -66.6328 -66.6227 -66.6198
   -66.6083 -66.5912 -66.5862 -66.5810 -66.5779 -66.5757 -66.5726 -66.5654
   -38.8010 -38.7812 -38.7725 -38.7717 -38.6706 -38.6693 -38.6679 -38.6434
   -38.6334 -38.6265 -38.6253 -38.6226 -38.5963 -38.5809 -38.5675 -38.5646
   -38.5360 -38.5355 -38.5254 -38.5161 -38.5129 -38.5097 -38.5045 -38.4820
   -38.4663 -38.4654 -38.4629 -38.4423 -38.3822 -38.3809 -38.3767 -38.3727
   -38.3691 -38.3634 -38.3624 -38.3610 -38.3551 -38.3486 -38.3320 -38.3282
   -38.3278 -38.3187 -38.3132 -38.3112 -38.2885 -38.2811 -38.2695 -38.2668
   -38.2666 -38.2652 -38.2652 -38.2648 -38.2594 -38.2532 -38.2519 -38.2483
   -38.2455 -38.2445 -38.2383 -38.2331 -38.2322 -38.2266 -38.2185 -38.2146
   -38.2103 -38.2092 -38.2059 -38.1977 -38.1941 -38.1911 -38.1901 -38.1617
   -38.1575 -38.1564 -38.1524 -38.1512 -38.1454 -38.1409 -38.1403 -38.1288
   -38.1245 -38.1206 -38.1181 -38.1051 -38.1005 -38.0972 -38.0846 -38.0839
   -38.0822 -38.0726 -38.0701 -38.0574 -38.0545 -38.0496 -38.0465 -38.0388
   -38.0380 -38.0303 -38.0270 -38.0243 -38.0235 -38.0086 -38.0081 -38.0059
   -37.9744 -37.9693 -37.9682 -37.9597 -37.9592 -37.9560 -37.9468 -37.9431
   -37.9412 -37.9388 -37.9373 -37.9258 -37.9236 -37.9187 -37.9166 -37.9121
   -37.9090 -37.9026 -37.9012 -37.8981 -37.8722 -37.8686 -37.8674 -37.8603
   -37.8590 -37.8562 -37.8463 -37.8384 -37.8353 -37.8157 -37.8084 -37.8070
   -37.7128 -37.6946 -37.6917 -37.6768 -37.6719 -37.6709 -37.6606 -37.6561
   -12.4382 -12.0110 -11.9908 -11.8550 -11.8525 -11.7237 -11.6408 -11.6318
   -11.5632 -11.5578 -11.4808 -11.3392 -11.3308 -11.2863 -11.2688 -11.2635
   -11.2559 -11.2019 -11.0376 -11.0159  -8.9890  -8.7131  -8.7125  -8.7014
    -8.6606  -2.9736  -2.9702  -2.9295  -2.8179  -2.7475  -2.7347  -2.7137
    -2.7084  -2.7054  -2.5910  -2.5878  -2.4412  -2.3981  -2.3601  -2.3507
    -2.3470  -2.2914  -2.2401  -2.2125  -2.2061  -2.1620  -1.9749  -1.7965
    -1.7786  -1.7506  -1.6807  -1.6430  -1.5885  -1.5569  -1.5225  -1.4792
    -1.4709  -1.4461  -1.4214  -1.4115  -1.3691  -1.3525  -1.3219  -1.3127
    -1.2974  -1.2827  -1.2531  -1.2483  -1.2085  -1.1204  -1.0788  -1.0630
    -1.0152  -0.9540  -0.8994  -0.8949  -0.8858  -0.8373  -0.8332  -0.8245
    -0.8027  -0.7778  -0.7170  -0.6513  -0.6487  -0.5053  -0.4610  -0.4590
     0.7804   1.1871   1.2179   1.2188   1.4574   1.4578   1.4685   1.4699
     1.5363   1.5533   1.5536   1.5723   1.6345   1.6731   1.6758   1.6873
     1.7880   1.7916   1.8358   2.0744   2.0760   2.1191   2.1676   2.1723
     2.2249   2.2784   2.3084   2.3136   2.3358   2.4355   2.4367   2.4533
     2.4634   2.4660   2.5285   2.5559   2.5599   2.5766   2.6000   2.6303
     2.7318   2.8102   2.8122   2.8713   3.0245   3.0780   3.1380   3.2088
     3.2152   3.2430   3.2471   3.2718   3.3733   3.3772   3.4029   3.4072
     3.4114   3.4496   3.5246   3.5938   3.6109   3.6196   3.6490   3.6825
     3.7119   3.7289   3.7375   3.7409   3.7814   3.7929   3.7953   3.8787
     4.0007   4.0082   4.0210   4.0365   4.0529   4.0585   4.0703   4.1552
     4.1855   4.1986   4.2525   4.2655   4.2937   4.3034   4.3182   4.3208
     4.3581   4.3744   4.3884   4.3986   4.4119   4.4910   4.4965   4.5070
     4.5290   4.5827   4.5844   4.6819   4.7063   4.7269   4.7582   4.7791
     4.7904   4.7991   4.8437   4.8679   4.8853   4.9395   4.9497   4.9545
     4.9812   4.9881   5.0124   5.0786   5.0866   5.1468   5.1714   5.1882
     5.2098   5.2570   5.2848   5.3149   5.3313   5.3727   5.3915   5.4642
     5.4754   5.4795   5.4825   5.5265   5.5548   5.5681   5.5814   5.5856
     5.6108   5.6901   5.7077   5.7316   5.7526   5.7592   5.7656   5.7745
     5.7971   5.8183   5.8282   5.8439   5.8685   5.8926   5.8959   5.9011
     5.9154   5.9485   5.9672   5.9768   5.9870   5.9897   6.0239   6.0315
     6.0395   6.0499   6.0565   6.0683   6.0704   6.0809   6.1222   6.1816
     6.2155   6.2210   6.2380   6.2556   6.2609   6.2654   6.2750   6.3085
     6.3207   6.3260   6.3527   6.3789   6.4080   6.4149   6.4567   6.4738
     6.4776   6.4818   6.5457   6.5524   6.5644   6.5780   6.6550   6.6642
     6.6851   6.7036   6.7101   6.7383   6.7502   6.7564   6.8109   6.8254

          k = 0.0000-0.5774 0.0000 (108310 PWs)   bands (ev):

   -66.9869 -66.9864 -66.9657 -66.9644 -66.9399 -66.9388 -66.9383 -66.9368
   -66.9336 -66.9326 -66.9264 -66.9253 -66.9253 -66.9228 -66.9205 -66.9204
   -66.9108 -66.9075 -66.9067 -66.9061 -66.9038 -66.9001 -66.8991 -66.8969
   -66.7381 -66.7376 -66.7225 -66.7218 -66.7025 -66.7022 -66.7005 -66.6994
   -66.6953 -66.6944 -66.6918 -66.6914 -66.6581 -66.6322 -66.6254 -66.6202
   -66.6078 -66.5893 -66.5854 -66.5802 -66.5791 -66.5755 -66.5724 -66.5667
   -38.7927 -38.7907 -38.7683 -38.7673 -38.6632 -38.6619 -38.6597 -38.6572
   -38.6336 -38.6330 -38.6295 -38.6283 -38.5951 -38.5944 -38.5698 -38.5668
   -38.5323 -38.5305 -38.5232 -38.5221 -38.5178 -38.5158 -38.4961 -38.4958
   -38.4592 -38.4578 -38.4461 -38.4455 -38.3917 -38.3899 -38.3688 -38.3683
   -38.3627 -38.3621 -38.3522 -38.3519 -38.3420 -38.3412 -38.3304 -38.3296
   -38.3244 -38.3240 -38.3170 -38.3139 -38.3023 -38.3014 -38.2717 -38.2696
   -38.2695 -38.2685 -38.2646 -38.2639 -38.2633 -38.2607 -38.2555 -38.2507
   -38.2464 -38.2453 -38.2439 -38.2357 -38.2346 -38.2344 -38.2131 -38.2112
   -38.1980 -38.1942 -38.1918 -38.1850 -38.1845 -38.1812 -38.1805 -38.1792
   -38.1665 -38.1649 -38.1642 -38.1611 -38.1378 -38.1348 -38.1334 -38.1326
   -38.1294 -38.1292 -38.1151 -38.1134 -38.1030 -38.0981 -38.0833 -38.0787
   -38.0781 -38.0755 -38.0622 -38.0566 -38.0559 -38.0509 -38.0454 -38.0412
   -38.0376 -38.0352 -38.0241 -38.0206 -38.0156 -38.0133 -37.9953 -37.9938
   -37.9844 -37.9818 -37.9685 -37.9676 -37.9579 -37.9572 -37.9443 -37.9395
   -37.9380 -37.9349 -37.9331 -37.9325 -37.9212 -37.9160 -37.9147 -37.9114
   -37.9053 -37.9050 -37.9038 -37.9028 -37.8699 -37.8689 -37.8663 -37.8654
   -37.8563 -37.8548 -37.8464 -37.8453 -37.8339 -37.8134 -37.8099 -37.8087
   -37.7117 -37.6894 -37.6823 -37.6818 -37.6731 -37.6705 -37.6686 -37.6580
   -12.2628 -12.2596 -11.8907 -11.8869 -11.8776 -11.8732 -11.6481 -11.6397
   -11.4748 -11.4705 -11.3480 -11.3479 -11.3405 -11.3294 -11.3117 -11.3085
   -11.1313 -11.1264 -11.1087 -11.1085  -8.9890  -8.7147  -8.7141  -8.6800
    -8.6794  -2.9404  -2.9349  -2.8442  -2.8415  -2.7769  -2.7747  -2.7744
    -2.7712  -2.6494  -2.6480  -2.5341  -2.5312  -2.3754  -2.3656  -2.3126
    -2.2983  -2.2642  -2.2482  -2.1280  -2.1250  -2.0401  -2.0395  -1.8605
    -1.8484  -1.7656  -1.7121  -1.6846  -1.6714  -1.5871  -1.5700  -1.5330
    -1.5098  -1.4614  -1.4441  -1.4187  -1.3899  -1.3574  -1.2955  -1.2904
    -1.2627  -1.2561  -1.2450  -1.2335  -1.1311  -1.1138  -1.0513  -1.0490
    -1.0314  -1.0263  -0.9077  -0.8984  -0.8543  -0.8399  -0.8365  -0.8192
    -0.7359  -0.7333  -0.6710  -0.6678  -0.6223  -0.6183  -0.4847  -0.4823
     1.0228   1.0234   1.2059   1.2068   1.4376   1.4387   1.4578   1.4584
     1.5332   1.5337   1.5499   1.5502   1.6926   1.6929   1.6998   1.7076
     1.9271   1.9318   1.9339   1.9371   2.1104   2.1123   2.1438   2.1495
     2.2382   2.2397   2.3717   2.3731   2.3936   2.3960   2.4275   2.4280
     2.4653   2.4684   2.4787   2.4805   2.5833   2.5890   2.7568   2.7591
     2.8102   2.8156   2.8310   2.8356   3.0168   3.0313   3.0475   3.0542
     3.1185   3.1201   3.2102   3.2221   3.3367   3.3434   3.3987   3.4045
     3.4330   3.4354   3.5301   3.5324   3.6198   3.6330   3.6776   3.6796
     3.7429   3.7497   3.8194   3.8281   3.8690   3.8772   3.9156   3.9208
     3.9547   3.9588   3.9908   4.0016   4.0145   4.0238   4.1446   4.1540
     4.1643   4.1689   4.2900   4.2960   4.3196   4.3321   4.3359   4.3602
     4.3690   4.3757   4.3861   4.3951   4.4596   4.4663   4.4814   4.4838
     4.4892   4.4985   4.6171   4.6226   4.6455   4.6640   4.6898   4.6911
     4.7074   4.7090   4.8304   4.8361   4.9934   4.9974   4.9987   5.0010
     5.0064   5.0167   5.0843   5.0919   5.1278   5.1303   5.1465   5.1475
     5.2002   5.2024   5.2718   5.3261   5.3538   5.3553   5.3654   5.3697
     5.4353   5.4506   5.4703   5.5034   5.5315   5.5385   5.5692   5.5698
     5.5922   5.5993   5.6116   5.6825   5.7139   5.7212   5.7513   5.7549
     5.7766   5.7786   5.7985   5.8448   5.8504   5.8563   5.8776   5.8893
     5.9057   5.9095   5.9256   5.9338   5.9839   6.0014   6.0117   6.0170
     6.0490   6.0655   6.0815   6.1352   6.1616   6.1742   6.1747   6.1843
     6.1880   6.1985   6.2070   6.2158   6.2205   6.2263   6.3478   6.3559
     6.3570   6.3582   6.4017   6.4272   6.4411   6.4563   6.4593   6.4598
     6.4726   6.5038   6.5080   6.5245   6.6216   6.6252   6.6317   6.6325
     6.6694   6.6796   6.7187   6.7284   6.8566   6.8670   6.8713   6.8800

          k = 0.2500 0.4330 0.0000 (108308 PWs)   bands (ev):

   -66.9898 -66.9782 -66.9774 -66.9541 -66.9463 -66.9413 -66.9365 -66.9339
   -66.9325 -66.9314 -66.9309 -66.9254 -66.9250 -66.9217 -66.9207 -66.9168
   -66.9137 -66.9086 -66.9059 -66.9051 -66.9029 -66.9012 -66.8995 -66.8964
   -66.7402 -66.7315 -66.7311 -66.7147 -66.7080 -66.7019 -66.6987 -66.6984
   -66.6946 -66.6945 -66.6925 -66.6915 -66.6580 -66.6319 -66.6268 -66.6195
   -66.6072 -66.5901 -66.5842 -66.5805 -66.5791 -66.5762 -66.5727 -66.5661
   -38.7943 -38.7830 -38.7815 -38.7601 -38.6645 -38.6636 -38.6580 -38.6539
   -38.6394 -38.6313 -38.6288 -38.6268 -38.5959 -38.5872 -38.5862 -38.5472
   -38.5410 -38.5293 -38.5285 -38.5234 -38.5217 -38.5055 -38.5029 -38.4899
   -38.4550 -38.4541 -38.4526 -38.4420 -38.4174 -38.3711 -38.3708 -38.3700
   -38.3624 -38.3578 -38.3490 -38.3464 -38.3457 -38.3397 -38.3386 -38.3300
   -38.3241 -38.3176 -38.3169 -38.3150 -38.2988 -38.2930 -38.2917 -38.2721
   -38.2710 -38.2675 -38.2666 -38.2620 -38.2579 -38.2547 -38.2521 -38.2518
   -38.2490 -38.2457 -38.2435 -38.2363 -38.2338 -38.2321 -38.2307 -38.1986
   -38.1980 -38.1961 -38.1909 -38.1871 -38.1839 -38.1814 -38.1801 -38.1727
   -38.1693 -38.1665 -38.1644 -38.1621 -38.1394 -38.1345 -38.1332 -38.1261
   -38.1251 -38.1229 -38.1216 -38.1182 -38.1121 -38.0951 -38.0833 -38.0809
   -38.0776 -38.0727 -38.0609 -38.0593 -38.0581 -38.0520 -38.0460 -38.0438
   -38.0369 -38.0260 -38.0240 -38.0205 -38.0156 -38.0051 -38.0034 -37.9978
   -37.9842 -37.9733 -37.9704 -37.9678 -37.9592 -37.9540 -37.9500 -37.9432
   -37.9397 -37.9355 -37.9339 -37.9304 -37.9192 -37.9149 -37.9138 -37.9102
   -37.9095 -37.9071 -37.8993 -37.8992 -37.8743 -37.8739 -37.8624 -37.8617
   -37.8601 -37.8507 -37.8503 -37.8426 -37.8341 -37.8134 -37.8100 -37.8084
   -37.7092 -37.6904 -37.6864 -37.6820 -37.6753 -37.6698 -37.6646 -37.6578
   -12.3180 -12.1056 -12.1033 -11.9121 -11.7794 -11.7748 -11.7261 -11.5611
   -11.5345 -11.4248 -11.4048 -11.4036 -11.3887 -11.3235 -11.2149 -11.2100
   -11.1893 -11.1884 -11.1010 -11.0808  -8.9890  -8.7230  -8.6957  -8.6954
    -8.6739  -2.9884  -2.8890  -2.8863  -2.8702  -2.7588  -2.7574  -2.7186
    -2.6806  -2.6297  -2.6167  -2.5945  -2.5915  -2.5479  -2.3635  -2.2271
    -2.2211  -2.2100  -2.1937  -2.1399  -2.1333  -2.0977  -2.0865  -1.9671
    -1.8221  -1.7895  -1.7299  -1.6817  -1.5979  -1.5610  -1.5384  -1.5141
    -1.4853  -1.4654  -1.4287  -1.4205  -1.3954  -1.3676  -1.3436  -1.3283
    -1.2916  -1.2853  -1.1828  -1.1739  -1.1428  -1.1399  -1.1177  -1.0719
    -0.9601  -0.9341  -0.9301  -0.8806  -0.8621  -0.8545  -0.8330  -0.8095
    -0.7992  -0.7534  -0.7443  -0.6614  -0.5629  -0.5526  -0.5490  -0.4558
     0.9566   1.1383   1.1398   1.2389   1.4243   1.4401   1.4417   1.4422
     1.4856   1.5669   1.5677   1.5942   1.6610   1.6790   1.6825   1.7379
     1.8558   1.9741   1.9767   2.0634   2.0645   2.1271   2.1291   2.1873
     2.1935   2.2540   2.2574   2.2886   2.3639   2.3693   2.4037   2.4042
     2.4548   2.5047   2.5695   2.5958   2.5994   2.6788   2.6821   2.7922
     2.8002   2.8033   2.8327   2.8431   2.9341   2.9419   2.9459   3.0081
     3.1905   3.2531   3.2960   3.3040   3.3450   3.3475   3.3542   3.4387
     3.4422   3.4451   3.4609   3.5692   3.5888   3.5906   3.6538   3.7163
     3.7240   3.7564   3.7650   3.7899   3.7975   3.8530   3.8782   3.9001
     4.0357   4.0406   4.0575   4.0668   4.0764   4.0872   4.0937   4.1242
     4.1629   4.1929   4.2181   4.2467   4.2590   4.3023   4.3213   4.3406
     4.3696   4.3719   4.4109   4.4198   4.4504   4.4661   4.4699   4.4864
     4.5723   4.5782   4.5948   4.6111   4.6159   4.6243   4.6430   4.6851
     4.7389   4.8695   4.8731   4.8859   4.8983   4.9092   4.9179   4.9292
     4.9637   4.9816   5.0493   5.0680   5.1264   5.1568   5.1719   5.1804
     5.1914   5.2841   5.3051   5.3192   5.3308   5.3550   5.4025   5.4349
     5.4444   5.4465   5.4587   5.4921   5.5130   5.5251   5.5502   5.5972
     5.6106   5.6320   5.6477   5.7218   5.7379   5.7420   5.7486   5.7594
     5.7788   5.7833   5.7898   5.7960   5.8220   5.8709   5.8735   5.8838
     5.8924   5.9014   5.9233   5.9343   5.9673   5.9790   6.0041   6.0274
     6.0431   6.0648   6.0763   6.0851   6.1034   6.1194   6.1294   6.1804
     6.1901   6.2005   6.2220   6.2382   6.2493   6.2841   6.2999   6.3211
     6.3475   6.3663   6.3823   6.4055   6.4384   6.4690   6.4861   6.5112
     6.5127   6.5448   6.5761   6.5800   6.6076   6.6330   6.6617   6.6805
     6.6827   6.6982   6.7319   6.7355   6.7747   6.8086   6.8589   6.8731

          k =-0.2500 0.1443 0.0000 (108355 PWs)   bands (ev):

   -66.9964 -66.9724 -66.9634 -66.9626 -66.9462 -66.9449 -66.9444 -66.9387
   -66.9296 -66.9282 -66.9278 -66.9243 -66.9237 -66.9219 -66.9177 -66.9164
   -66.9129 -66.9119 -66.9087 -66.9050 -66.9023 -66.9018 -66.8985 -66.8953
   -66.7451 -66.7274 -66.7207 -66.7206 -66.7075 -66.7074 -66.7032 -66.6964
   -66.6963 -66.6938 -66.6898 -66.6893 -66.6586 -66.6328 -66.6232 -66.6198
   -66.6074 -66.5919 -66.5855 -66.5816 -66.5772 -66.5760 -66.5734 -66.5650
   -38.8009 -38.7810 -38.7730 -38.7713 -38.6700 -38.6697 -38.6681 -38.6428
   -38.6341 -38.6262 -38.6255 -38.6230 -38.5964 -38.5813 -38.5669 -38.5641
   -38.5370 -38.5347 -38.5254 -38.5164 -38.5121 -38.5102 -38.5042 -38.4825
   -38.4660 -38.4648 -38.4637 -38.4424 -38.3828 -38.3814 -38.3763 -38.3727
   -38.3691 -38.3631 -38.3625 -38.3604 -38.3555 -38.3482 -38.3321 -38.3281
   -38.3271 -38.3181 -38.3130 -38.3116 -38.2882 -38.2815 -38.2698 -38.2671
   -38.2667 -38.2659 -38.2650 -38.2643 -38.2592 -38.2543 -38.2527 -38.2488
   -38.2456 -38.2445 -38.2372 -38.2329 -38.2323 -38.2255 -38.2181 -38.2142
   -38.2110 -38.2094 -38.2074 -38.1965 -38.1933 -38.1917 -38.1902 -38.1612
   -38.1602 -38.1549 -38.1524 -38.1501 -38.1455 -38.1407 -38.1402 -38.1287
   -38.1247 -38.1200 -38.1189 -38.1039 -38.0983 -38.0974 -38.0907 -38.0842
   -38.0803 -38.0725 -38.0689 -38.0577 -38.0536 -38.0499 -38.0474 -38.0401
   -38.0368 -38.0290 -38.0274 -38.0240 -38.0228 -38.0102 -38.0078 -38.0055
   -37.9740 -37.9699 -37.9673 -37.9602 -37.9594 -37.9557 -37.9458 -37.9446
   -37.9416 -37.9399 -37.9388 -37.9251 -37.9223 -37.9192 -37.9155 -37.9115
   -37.9095 -37.9023 -37.9019 -37.8978 -37.8721 -37.8685 -37.8681 -37.8594
   -37.8591 -37.8565 -37.8460 -37.8387 -37.8351 -37.8158 -37.8084 -37.8070
   -37.7116 -37.6953 -37.6914 -37.6804 -37.6711 -37.6686 -37.6618 -37.6551
   -12.4382 -12.0109 -11.9908 -11.8541 -11.8535 -11.7240 -11.6364 -11.6356
   -11.5609 -11.5602 -11.4808 -11.3355 -11.3349 -11.2861 -11.2674 -11.2661
   -11.2549 -11.2016 -11.0375 -11.0159  -8.9890  -8.7129  -8.7126  -8.7014
    -8.6606  -2.9730  -2.9702  -2.9302  -2.8178  -2.7473  -2.7341  -2.7115
    -2.7072  -2.7053  -2.5913  -2.5882  -2.4443  -2.4004  -2.3621  -2.3516
    -2.3482  -2.2905  -2.2372  -2.2113  -2.2066  -2.1594  -1.9701  -1.7943
    -1.7835  -1.7485  -1.6803  -1.6523  -1.6095  -1.5384  -1.5145  -1.4874
    -1.4631  -1.4473  -1.4234  -1.4020  -1.3787  -1.3496  -1.3390  -1.3106
    -1.2913  -1.2769  -1.2483  -1.2398  -1.2225  -1.1227  -1.0775  -1.0600
    -1.0140  -0.9551  -0.9078  -0.8900  -0.8845  -0.8353  -0.8321  -0.8278
    -0.8029  -0.7737  -0.7191  -0.6517  -0.6467  -0.5045  -0.4612  -0.4595
     0.7804   1.1870   1.2183   1.2185   1.4575   1.4576   1.4682   1.4698
     1.5368   1.5534   1.5538   1.5723   1.6345   1.6744   1.6753   1.6876
     1.7891   1.7916   1.8342   2.0745   2.0765   2.1192   2.1691   2.1716
     2.2244   2.2766   2.3102   2.3124   2.3366   2.4361   2.4373   2.4527
     2.4624   2.4647   2.5282   2.5564   2.5602   2.5763   2.6002   2.6289
     2.7318   2.8085   2.8120   2.8748   3.0255   3.0774   3.1415   3.2101
     3.2121   3.2424   3.2479   3.2776   3.3701   3.3768   3.3999   3.4078
     3.4108   3.4488   3.5277   3.5837   3.6140   3.6193   3.6509   3.6987
     3.7093   3.7222   3.7299   3.7436   3.7845   3.7908   3.7936   3.8760
     3.9954   4.0179   4.0281   4.0394   4.0474   4.0542   4.0687   4.1547
     4.1826   4.1929   4.2529   4.2614   4.2902   4.3112   4.3206   4.3258
     4.3386   4.3730   4.3981   4.4040   4.4152   4.4893   4.5039   4.5071
     4.5219   4.5814   4.5830   4.6800   4.7044   4.7332   4.7557   4.7841
     4.7849   4.7970   4.8456   4.8591   4.8881   4.9367   4.9499   4.9542
     4.9840   4.9967   5.0132   5.0701   5.1111   5.1526   5.1613   5.1956
     5.2051   5.2398   5.2948   5.3097   5.3436   5.3670   5.3813   5.4644
     5.4780   5.4812   5.4828   5.5242   5.5625   5.5668   5.5787   5.5845
     5.6070   5.6794   5.6992   5.7331   5.7593   5.7622   5.7691   5.7739
     5.8003   5.8205   5.8320   5.8377   5.8485   5.8935   5.9011   5.9034
     5.9120   5.9538   5.9690   5.9760   5.9817   6.0073   6.0217   6.0294
     6.0398   6.0498   6.0579   6.0681   6.0715   6.0899   6.1086   6.1917
     6.2158   6.2203   6.2371   6.2570   6.2632   6.2664   6.2808   6.3188
     6.3254   6.3267   6.3557   6.3815   6.4024   6.4150   6.4307   6.4661
     6.4770   6.5002   6.5472   6.5552   6.5641   6.5708   6.6581   6.6693
     6.6847   6.7033   6.7096   6.7282   6.7451   6.7757   6.8109   6.8225

          k = 0.2500 0.1443 0.0000 (108355 PWs)   bands (ev):

   -66.9964 -66.9724 -66.9634 -66.9627 -66.9462 -66.9449 -66.9444 -66.9387
   -66.9296 -66.9283 -66.9278 -66.9243 -66.9237 -66.9219 -66.9177 -66.9164
   -66.9128 -66.9119 -66.9087 -66.9050 -66.9024 -66.9017 -66.8985 -66.8953
   -66.7451 -66.7274 -66.7207 -66.7206 -66.7075 -66.7074 -66.7032 -66.6964
   -66.6962 -66.6938 -66.6898 -66.6893 -66.6586 -66.6330 -66.6227 -66.6203
   -66.6073 -66.5918 -66.5852 -66.5816 -66.5779 -66.5760 -66.5729 -66.5650
   -38.8009 -38.7810 -38.7730 -38.7714 -38.6700 -38.6697 -38.6681 -38.6428
   -38.6341 -38.6261 -38.6255 -38.6231 -38.5964 -38.5813 -38.5668 -38.5642
   -38.5370 -38.5347 -38.5254 -38.5164 -38.5122 -38.5102 -38.5042 -38.4826
   -38.4658 -38.4649 -38.4637 -38.4424 -38.3827 -38.3816 -38.3763 -38.3728
   -38.3691 -38.3631 -38.3625 -38.3604 -38.3556 -38.3481 -38.3321 -38.3280
   -38.3271 -38.3179 -38.3129 -38.3118 -38.2881 -38.2816 -38.2699 -38.2671
   -38.2667 -38.2659 -38.2650 -38.2644 -38.2591 -38.2544 -38.2527 -38.2488
   -38.2458 -38.2445 -38.2373 -38.2331 -38.2321 -38.2253 -38.2180 -38.2143
   -38.2110 -38.2095 -38.2075 -38.1964 -38.1934 -38.1916 -38.1902 -38.1615
   -38.1603 -38.1547 -38.1524 -38.1499 -38.1454 -38.1405 -38.1403 -38.1287
   -38.1247 -38.1200 -38.1189 -38.1039 -38.0981 -38.0973 -38.0912 -38.0842
   -38.0803 -38.0723 -38.0686 -38.0588 -38.0522 -38.0499 -38.0474 -38.0403
   -38.0369 -38.0293 -38.0273 -38.0238 -38.0227 -38.0102 -38.0083 -38.0053
   -37.9739 -37.9700 -37.9673 -37.9602 -37.9594 -37.9556 -37.9457 -37.9446
   -37.9416 -37.9400 -37.9389 -37.9252 -37.9221 -37.9191 -37.9155 -37.9115
   -37.9094 -37.9023 -37.9019 -37.8977 -37.8721 -37.8685 -37.8681 -37.8594
   -37.8591 -37.8565 -37.8460 -37.8387 -37.8351 -37.8157 -37.8084 -37.8070
   -37.7112 -37.6953 -37.6914 -37.6811 -37.6724 -37.6672 -37.6624 -37.6544
   -12.4382 -12.0110 -11.9908 -11.8540 -11.8535 -11.7240 -11.6363 -11.6358
   -11.5608 -11.5603 -11.4808 -11.3354 -11.3350 -11.2861 -11.2673 -11.2662
   -11.2549 -11.2017 -11.0375 -11.0159  -8.9890  -8.7129  -8.7126  -8.7014
    -8.6606  -2.9729  -2.9702  -2.9298  -2.8178  -2.7472  -2.7342  -2.7119
    -2.7082  -2.7054  -2.5913  -2.5878  -2.4435  -2.4000  -2.3619  -2.3508
    -2.3478  -2.2905  -2.2376  -2.2123  -2.2056  -2.1605  -1.9734  -1.7951
    -1.7759  -1.7465  -1.6914  -1.6578  -1.6037  -1.5382  -1.5179  -1.4918
    -1.4546  -1.4455  -1.4227  -1.3948  -1.3772  -1.3451  -1.3397  -1.3147
    -1.2964  -1.2767  -1.2508  -1.2466  -1.2155  -1.1224  -1.0782  -1.0602
    -1.0146  -0.9551  -0.9069  -0.8902  -0.8859  -0.8354  -0.8313  -0.8275
    -0.8001  -0.7742  -0.7205  -0.6514  -0.6466  -0.5049  -0.4610  -0.4594
     0.7802   1.1869   1.2184   1.2185   1.4575   1.4577   1.4682   1.4698
     1.5366   1.5535   1.5540   1.5723   1.6345   1.6746   1.6757   1.6876
     1.7895   1.7914   1.8336   2.0741   2.0763   2.1195   2.1697   2.1712
     2.2243   2.2767   2.3103   2.3120   2.3363   2.4358   2.4377   2.4528
     2.4636   2.4651   2.5277   2.5564   2.5596   2.5755   2.6001   2.6288
     2.7318   2.8086   2.8112   2.8752   3.0247   3.0777   3.1411   3.2098
     3.2126   3.2424   3.2479   3.2783   3.3705   3.3766   3.4003   3.4070
     3.4109   3.4485   3.5271   3.5873   3.6137   3.6195   3.6519   3.6997
     3.7084   3.7208   3.7271   3.7431   3.7850   3.7906   3.7937   3.8750
     3.9960   4.0190   4.0294   4.0387   4.0517   4.0537   4.0697   4.1549
     4.1825   4.1896   4.2517   4.2585   4.2898   4.3115   4.3208   4.3250
     4.3414   4.3728   4.3987   4.4059   4.4170   4.4893   4.5070   4.5080
     4.5182   4.5806   4.5840   4.6789   4.7036   4.7310   4.7556   4.7842
     4.7874   4.7932   4.8446   4.8587   4.8886   4.9375   4.9492   4.9542
     4.9846   4.9954   5.0133   5.0684   5.1117   5.1528   5.1644   5.1964
     5.2042   5.2391   5.2961   5.3094   5.3434   5.3669   5.3818   5.4639
     5.4783   5.4808   5.4828   5.5230   5.5622   5.5676   5.5799   5.5845
     5.6073   5.6745   5.7049   5.7347   5.7592   5.7616   5.7687   5.7746
     5.8000   5.8206   5.8318   5.8359   5.8481   5.8953   5.9006   5.9027
     5.9131   5.9540   5.9675   5.9757   5.9824   6.0063   6.0229   6.0297
     6.0395   6.0508   6.0576   6.0672   6.0721   6.0887   6.1098   6.1908
     6.2154   6.2196   6.2371   6.2590   6.2632   6.2671   6.2817   6.3187
     6.3243   6.3265   6.3548   6.3815   6.4030   6.4151   6.4305   6.4668
     6.4771   6.4996   6.5476   6.5552   6.5638   6.5709   6.6584   6.6690
     6.6824   6.7033   6.7108   6.7277   6.7469   6.7773   6.8090   6.8248

          k = 0.5000-0.2887 0.0000 (108310 PWs)   bands (ev):

   -66.9870 -66.9862 -66.9655 -66.9647 -66.9401 -66.9388 -66.9371 -66.9363
   -66.9344 -66.9332 -66.9267 -66.9259 -66.9246 -66.9232 -66.9205 -66.9203
   -66.9091 -66.9083 -66.9075 -66.9049 -66.9029 -66.9020 -66.8999 -66.8959
   -66.7380 -66.7377 -66.7222 -66.7221 -66.7026 -66.7025 -66.6999 -66.6997
   -66.6948 -66.6948 -66.6918 -66.6915 -66.6580 -66.6321 -66.6263 -66.6203
   -66.6063 -66.5908 -66.5837 -66.5806 -66.5781 -66.5762 -66.5744 -66.5655
   -38.7923 -38.7909 -38.7688 -38.7670 -38.6642 -38.6616 -38.6580 -38.6573
   -38.6347 -38.6324 -38.6302 -38.6285 -38.5957 -38.5943 -38.5692 -38.5661
   -38.5334 -38.5303 -38.5221 -38.5218 -38.5188 -38.5148 -38.4978 -38.4951
   -38.4587 -38.4573 -38.4466 -38.4460 -38.3921 -38.3907 -38.3685 -38.3680
   -38.3626 -38.3623 -38.3531 -38.3519 -38.3413 -38.3404 -38.3302 -38.3288
   -38.3241 -38.3230 -38.3160 -38.3146 -38.3029 -38.3017 -38.2723 -38.2695
   -38.2692 -38.2691 -38.2650 -38.2637 -38.2630 -38.2612 -38.2586 -38.2506
   -38.2455 -38.2446 -38.2434 -38.2359 -38.2348 -38.2346 -38.2125 -38.2107
   -38.2005 -38.1929 -38.1912 -38.1849 -38.1827 -38.1816 -38.1814 -38.1789
   -38.1701 -38.1649 -38.1636 -38.1591 -38.1377 -38.1329 -38.1326 -38.1317
   -38.1287 -38.1283 -38.1159 -38.1152 -38.0998 -38.0989 -38.0925 -38.0794
   -38.0774 -38.0706 -38.0611 -38.0581 -38.0546 -38.0498 -38.0453 -38.0429
   -38.0381 -38.0332 -38.0235 -38.0201 -38.0195 -38.0127 -37.9945 -37.9915
   -37.9838 -37.9807 -37.9716 -37.9684 -37.9583 -37.9574 -37.9438 -37.9418
   -37.9401 -37.9364 -37.9329 -37.9306 -37.9179 -37.9153 -37.9138 -37.9116
   -37.9054 -37.9052 -37.9040 -37.9031 -37.8701 -37.8695 -37.8656 -37.8653
   -37.8552 -37.8550 -37.8463 -37.8461 -37.8338 -37.8127 -37.8114 -37.8078
   -37.7082 -37.6908 -37.6893 -37.6792 -37.6747 -37.6705 -37.6646 -37.6580
   -12.2624 -12.2599 -11.8896 -11.8882 -11.8775 -11.8732 -11.6442 -11.6434
   -11.4730 -11.4723 -11.3499 -11.3463 -11.3351 -11.3344 -11.3106 -11.3103
   -11.1317 -11.1255 -11.1089 -11.1082  -8.9890  -8.7145  -8.7142  -8.6798
    -8.6795  -2.9402  -2.9336  -2.8430  -2.8419  -2.7792  -2.7746  -2.7718
    -2.7712  -2.6497  -2.6490  -2.5344  -2.5309  -2.3747  -2.3684  -2.3067
    -2.3018  -2.2575  -2.2478  -2.1364  -2.1243  -2.0444  -2.0413  -1.8540
    -1.8450  -1.7411  -1.7216  -1.7034  -1.6746  -1.6121  -1.5694  -1.5172
    -1.4981  -1.4511  -1.4413  -1.4360  -1.3992  -1.3523  -1.3066  -1.2783
    -1.2631  -1.2600  -1.2383  -1.2272  -1.1316  -1.1237  -1.0520  -1.0468
    -1.0307  -1.0220  -0.9006  -0.8970  -0.8587  -0.8512  -0.8344  -0.8249
    -0.7314  -0.7290  -0.6700  -0.6639  -0.6216  -0.6185  -0.4852  -0.4834
     1.0209   1.0250   1.2063   1.2066   1.4368   1.4394   1.4579   1.4581
     1.5334   1.5336   1.5498   1.5505   1.6912   1.6936   1.7056   1.7066
     1.9272   1.9311   1.9349   1.9370   2.1061   2.1113   2.1464   2.1490
     2.2391   2.2411   2.3726   2.3729   2.3946   2.3960   2.4269   2.4280
     2.4651   2.4662   2.4767   2.4782   2.5840   2.5903   2.7557   2.7601
     2.8104   2.8133   2.8289   2.8366   3.0291   3.0318   3.0482   3.0513
     3.1197   3.1200   3.2102   3.2212   3.3367   3.3416   3.3960   3.4021
     3.4340   3.4359   3.5275   3.5323   3.6202   3.6377   3.6764   3.6860
     3.7419   3.7506   3.8223   3.8314   3.8794   3.8881   3.9171   3.9215
     3.9407   3.9532   3.9859   3.9879   4.0098   4.0243   4.1416   4.1571
     4.1611   4.1635   4.2676   4.2897   4.3221   4.3285   4.3437   4.3579
     4.3695   4.3800   4.3904   4.4023   4.4565   4.4683   4.4817   4.4851
     4.4936   4.5004   4.6127   4.6181   4.6414   4.6587   4.6902   4.6906
     4.7077   4.7164   4.8176   4.8528   4.9882   4.9998   5.0034   5.0087
     5.0097   5.0341   5.0766   5.1060   5.1288   5.1320   5.1447   5.1566
     5.1939   5.1991   5.2729   5.2989   5.3537   5.3555   5.3658   5.3694
     5.4460   5.4535   5.4704   5.5008   5.5305   5.5360   5.5703   5.5767
     5.5875   5.6048   5.6102   5.6520   5.7182   5.7218   5.7543   5.7633
     5.7661   5.7775   5.7894   5.8147   5.8577   5.8699   5.8895   5.8968
     5.9087   5.9115   5.9222   5.9350   5.9770   6.0016   6.0138   6.0174
     6.0513   6.0590   6.0801   6.1272   6.1643   6.1737   6.1788   6.1858
     6.1896   6.2012   6.2096   6.2206   6.2246   6.2677   6.3447   6.3523
     6.3537   6.3913   6.3953   6.4034   6.4352   6.4504   6.4581   6.4714
     6.4758   6.4863   6.5070   6.5319   6.6227   6.6246   6.6345   6.6357
     6.6643   6.6782   6.7180   6.7613   6.8630   6.8644   6.8746   6.8904

          k =-0.5000-0.2887 0.0000 (108310 PWs)   bands (ev):

   -66.9870 -66.9863 -66.9655 -66.9647 -66.9401 -66.9388 -66.9371 -66.9362
   -66.9344 -66.9332 -66.9267 -66.9259 -66.9246 -66.9233 -66.9205 -66.9202
   -66.9091 -66.9082 -66.9075 -66.9051 -66.9029 -66.9019 -66.8999 -66.8959
   -66.7380 -66.7377 -66.7222 -66.7221 -66.7026 -66.7025 -66.6999 -66.6996
   -66.6949 -66.6948 -66.6918 -66.6915 -66.6579 -66.6326 -66.6256 -66.6207
   -66.6062 -66.5906 -66.5831 -66.5806 -66.5789 -66.5777 -66.5728 -66.5656
   -38.7923 -38.7909 -38.7687 -38.7671 -38.6641 -38.6617 -38.6580 -38.6573
   -38.6347 -38.6324 -38.6302 -38.6286 -38.5957 -38.5942 -38.5690 -38.5662
   -38.5334 -38.5304 -38.5220 -38.5217 -38.5187 -38.5148 -38.4978 -38.4952
   -38.4585 -38.4574 -38.4467 -38.4461 -38.3920 -38.3908 -38.3685 -38.3681
   -38.3626 -38.3622 -38.3532 -38.3520 -38.3412 -38.3403 -38.3301 -38.3288
   -38.3241 -38.3229 -38.3159 -38.3146 -38.3028 -38.3018 -38.2724 -38.2695
   -38.2693 -38.2692 -38.2649 -38.2639 -38.2630 -38.2612 -38.2587 -38.2509
   -38.2455 -38.2447 -38.2431 -38.2358 -38.2348 -38.2348 -38.2125 -38.2107
   -38.2006 -38.1927 -38.1915 -38.1850 -38.1828 -38.1817 -38.1812 -38.1789
   -38.1704 -38.1649 -38.1634 -38.1593 -38.1373 -38.1329 -38.1326 -38.1319
   -38.1286 -38.1282 -38.1159 -38.1154 -38.0994 -38.0987 -38.0934 -38.0793
   -38.0774 -38.0698 -38.0623 -38.0580 -38.0541 -38.0494 -38.0449 -38.0420
   -38.0377 -38.0353 -38.0229 -38.0197 -38.0196 -38.0141 -37.9942 -37.9909
   -37.9837 -37.9807 -37.9717 -37.9688 -37.9584 -37.9575 -37.9436 -37.9419
   -37.9404 -37.9365 -37.9329 -37.9307 -37.9177 -37.9153 -37.9136 -37.9117
   -37.9055 -37.9052 -37.9040 -37.9031 -37.8701 -37.8695 -37.8656 -37.8653
   -37.8552 -37.8550 -37.8462 -37.8461 -37.8337 -37.8132 -37.8104 -37.8083
   -37.7065 -37.6910 -37.6906 -37.6801 -37.6746 -37.6723 -37.6622 -37.6580
   -12.2624 -12.2599 -11.8895 -11.8882 -11.8776 -11.8731 -11.6441 -11.6435
   -11.4729 -11.4724 -11.3499 -11.3463 -11.3350 -11.3345 -11.3107 -11.3103
   -11.1320 -11.1253 -11.1088 -11.1083  -8.9890  -8.7145  -8.7142  -8.6798
    -8.6795  -2.9397  -2.9332  -2.8427  -2.8422  -2.7796  -2.7743  -2.7724
[...]
     6.5934   6.6377   6.6635   6.6682   6.6774   6.7353   6.7899   6.7929

          k = 0.5000-0.0000 0.0000 (108308 PWs)   bands (ev):

   -67.0701 -67.0584 -67.0584 -67.0354 -67.0276 -67.0196 -67.0188 -67.0140
   -67.0139 -67.0112 -67.0110 -67.0083 -67.0083 -67.0052 -67.0040 -66.9952
   -66.9901 -66.9848 -66.9816 -66.9816 -66.9785 -66.9782 -66.9767 -66.9755
   -66.8275 -66.8195 -66.8195 -66.8085 -66.7823 -66.7777 -66.7769 -66.7767
   -66.7721 -66.7718 -66.7710 -66.7694 -66.7224 -66.7155 -66.7133 -66.7052
   -66.6738 -66.6711 -66.6661 -66.6651 -66.6617 -66.6609 -66.6597 -66.6578
   -38.8629 -38.8503 -38.8502 -38.8293 -38.7364 -38.7361 -38.7303 -38.7247
   -38.7133 -38.7098 -38.7089 -38.7086 -38.6749 -38.6619 -38.6617 -38.6249
   -38.6203 -38.6136 -38.6135 -38.6103 -38.5988 -38.5953 -38.5949 -38.5904
   -38.5340 -38.5332 -38.5331 -38.5272 -38.5183 -38.5109 -38.5100 -38.5097
   -38.4966 -38.4367 -38.4336 -38.4321 -38.4319 -38.4194 -38.4193 -38.4077
   -38.4052 -38.4013 -38.4011 -38.3961 -38.3806 -38.3721 -38.3720 -38.3679
   -38.3679 -38.3638 -38.3607 -38.3584 -38.3484 -38.3483 -38.3421 -38.3404
   -38.3326 -38.3316 -38.3260 -38.3160 -38.3152 -38.3114 -38.3113 -38.2826
   -38.2822 -38.2795 -38.2782 -38.2776 -38.2671 -38.2670 -38.2630 -38.2492
   -38.2477 -38.2459 -38.2459 -38.2432 -38.2221 -38.2159 -38.2154 -38.2073
   -38.2057 -38.2041 -38.2040 -38.1972 -38.1928 -38.1717 -38.1715 -38.1694
   -38.1448 -38.1408 -38.1349 -38.1334 -38.1288 -38.1282 -38.1250 -38.1245
   -38.1032 -38.0963 -38.0921 -38.0895 -38.0885 -38.0744 -38.0740 -38.0738
   -38.0573 -38.0421 -38.0404 -38.0386 -38.0273 -38.0269 -38.0197 -38.0190
   -38.0142 -38.0133 -38.0120 -38.0020 -37.9965 -37.9937 -37.9936 -37.9920
   -37.9898 -37.9890 -37.9839 -37.9837 -37.9458 -37.9457 -37.9401 -37.9344
   -37.9324 -37.9236 -37.9235 -37.9158 -37.9020 -37.8978 -37.8966 -37.8963
   -37.7723 -37.7709 -37.7680 -37.7599 -37.7552 -37.7452 -37.7446 -37.7380
   -12.3507 -12.1364 -12.1361 -11.9500 -11.8065 -11.8065 -11.7685 -11.6038
   -11.5255 -11.4649 -11.4447 -11.4446 -11.3829 -11.3727 -11.2567 -11.2556
   -11.1679 -11.1679 -11.1457 -11.0506  -9.3297  -9.2805  -9.2798  -9.2404
    -7.1005  -3.0278  -2.9244  -2.9242  -2.9052  -2.7905  -2.7898  -2.7404
    -2.7123  -2.6539  -2.6512  -2.6200  -2.6191  -2.5716  -2.3966  -2.2542
    -2.2479  -2.2478  -2.1986  -2.1612  -2.1605  -2.1129  -2.1128  -1.9861
    -1.7992  -1.7991  -1.7202  -1.6991  -1.6305  -1.5603  -1.5595  -1.4894
    -1.4409  -1.4354  -1.4096  -1.4089  -1.4045  -1.3936  -1.3298  -1.2136
    -1.2132  -1.1698  -1.1685  -1.1375  -1.0897  -0.9876  -0.9783  -0.9773
    -0.9226  -0.9101  -0.8871  -0.8722  -0.8563  -0.8553  -0.7612  -0.7602
    -0.6900  -0.5831  -0.5685  -0.5683  -0.4275   0.4387   0.4750   0.4842
     0.6747   0.7305   0.7314   0.7689   0.9656   0.9687   1.0131   1.0166
     1.0168   1.0754   1.0817   1.0821   1.2777   1.4165   1.4185   1.6180
     1.7742   1.8823   1.8826   1.9133   1.9841   1.9867   1.9984   1.9989
     2.0862   2.1663   2.1667   2.2347   2.3090   2.3096   2.3436   2.3440
     2.3846   2.4435   2.5007   2.5126   2.5138   2.6040   2.6042   2.6594
     2.7292   2.7301   2.7422   2.7671   2.8422   2.8437   2.8596   2.9469
     3.0889   3.1768   3.2223   3.2243   3.2689   3.2702   3.2907   3.3633
     3.3715   3.3722   3.3820   3.4744   3.4754   3.4891   3.5767   3.6417
     3.6469   3.6774   3.6816   3.7093   3.7130   3.7801   3.7817   3.7945
     3.9623   3.9627   3.9680   3.9931   3.9948   4.0099   4.0119   4.0438
     4.0717   4.1303   4.1455   4.1587   4.1595   4.2248   4.2278   4.2302
     4.2670   4.2697   4.3161   4.3460   4.3648   4.3663   4.3845   4.3892
     4.4812   4.4822   4.5042   4.5145   4.5264   4.5318   4.5428   4.5924
     4.6219   4.7643   4.7842   4.7871   4.8239   4.8291   4.8505   4.8602
     4.8898   4.9591   4.9723   4.9765   5.0573   5.0607   5.1009   5.1180
     5.1200   5.1845   5.2227   5.2507   5.2706   5.2742   5.3057   5.3553
     5.3711   5.3721   5.3763   5.4127   5.4225   5.4465   5.4474   5.5293
     5.5320   5.5388   5.5644   5.6602   5.6648   5.6657   5.6662   5.6785
     5.7112   5.7123   5.7155   5.7303   5.7469   5.7935   5.8002   5.8032
     5.8089   5.8237   5.8390   5.8578   5.8581   5.8934   5.9194   5.9669
     5.9700   5.9892   6.0053   6.0125   6.0350   6.0364   6.0554   6.1228
     6.1237   6.1393   6.1676   6.1682   6.1984   6.2279   6.2333   6.2501
     6.2862   6.2900   6.2971   6.3045   6.3905   6.4016   6.4032   6.4454
     6.4492   6.4503   6.4957   6.4959   6.5374   6.5746   6.5900   6.5937
     6.5941   6.6402   6.6653   6.6662   6.6774   6.7345   6.7900   6.7911

     the Fermi energy is     5.1270 ev

!    total energy              =  -12616.46772018 Ry
     total all-electron energy =   -103594.971527 Ry
     estimated scf accuracy    <          5.8E-11 Ry
     smearing contrib. (-TS)   =       0.00927994 Ry
     internal energy E=F+TS    =  -12616.47700011 Ry

     The total energy is F=E-TS. E is the sum of the following terms:
     one-electron contribution =  -67026.29830453 Ry
     hartree contribution      =   33625.03601313 Ry
     xc contribution           =   -1216.04474576 Ry
     ewald contribution        =   25763.19313897 Ry
     DFT-D3 Dispersion         =      -1.08026536 Ry
     one-center paw contrib.   =   -3761.28283657 Ry

     convergence has been achieved in  38 iterations

     negative rho (up, down):  1.710E-04 0.000E+00

     Forces acting on atoms (cartesian axes, Ry/au):

     atom    1 type  1   force =    -0.00011865    0.00000129   -0.00019755
     atom    2 type  1   force =    -0.00013616   -0.00004041   -0.00001951
     atom    3 type  1   force =     0.00007355    0.00002868   -0.00013131
     atom    4 type  1   force =    -0.00005121    0.00021261   -0.00005827
     atom    5 type  1   force =     0.00011703   -0.00020418   -0.00025855
     atom    6 type  1   force =    -0.00015304   -0.00001621   -0.00028363
     atom    7 type  2   force =     0.00008597    0.00008756   -0.00015703
     atom    8 type  2   force =     0.00012193   -0.00000649    0.00056078
     atom    9 type  2   force =    -0.00006272   -0.00003011    0.00083223
     atom   10 type  1   force =    -0.00004492   -0.00033363    0.00012402
     atom   11 type  1   force =     0.00014351   -0.00014611   -0.00026759
     atom   12 type  1   force =     0.00014914    0.00018484    0.00033526
     atom   13 type  1   force =     0.00006352    0.00001944    0.00019874
     atom   14 type  1   force =    -0.00015988    0.00040444   -0.00032745
     atom   15 type  1   force =     0.00032004    0.00017005   -0.00026315
     atom   16 type  2   force =    -0.00004295    0.00010553   -0.00051716
     atom   17 type  2   force =    -0.00011856    0.00006950    0.00008177
     atom   18 type  2   force =    -0.00025817    0.00005468   -0.00002183
     atom   19 type  1   force =    -0.00020901   -0.00000835   -0.00017058
     atom   20 type  1   force =     0.00002111    0.00000109    0.00025633
     atom   21 type  1   force =    -0.00013945    0.00000246   -0.00018785
     atom   22 type  1   force =     0.00010571    0.00021331   -0.00025110
     atom   23 type  1   force =     0.00027253   -0.00010582   -0.00028769
     atom   24 type  1   force =     0.00004959    0.00000956   -0.00014055
     atom   25 type  2   force =     0.00042325    0.00001480    0.00009757
     atom   26 type  2   force =    -0.00006363    0.00004579    0.00084659
     atom   27 type  2   force =     0.00000602    0.00005688    0.00074155
     atom   28 type  1   force =     0.00007578   -0.00002001    0.00016470
     atom   29 type  1   force =     0.00000820    0.00000788    0.00050110
     atom   30 type  1   force =    -0.00003877    0.00034646    0.00011906
     atom   31 type  1   force =    -0.00016012   -0.00041258   -0.00035045
     atom   32 type  1   force =    -0.00024201    0.00035757   -0.00019266
     atom   33 type  1   force =     0.00040880   -0.00000922   -0.00052520
     atom   34 type  2   force =    -0.00013845   -0.00001022   -0.00057342
     atom   35 type  2   force =    -0.00024695   -0.00003492   -0.00003318
     atom   36 type  2   force =    -0.00013409   -0.00002344   -0.00017016
     atom   37 type  1   force =    -0.00007227    0.00026961   -0.00019684
     atom   38 type  1   force =    -0.00014726    0.00006182    0.00000442
     atom   39 type  1   force =    -0.00019255    0.00002853   -0.00016663
     atom   40 type  1   force =     0.00027725    0.00013151   -0.00029006
     atom   41 type  1   force =     0.00011335   -0.00023831   -0.00040824
     atom   42 type  1   force =    -0.00015873    0.00003855   -0.00028597
     atom   43 type  2   force =     0.00006467   -0.00008129   -0.00015008
     atom   44 type  2   force =     0.00001292   -0.00004148    0.00073038
     atom   45 type  2   force =    -0.00004370    0.00010777    0.00020245
     atom   46 type  1   force =     0.00009109    0.00016600    0.00033626
     atom   47 type  1   force =     0.00016214    0.00014082   -0.00025725
     atom   48 type  1   force =     0.00008206    0.00003445    0.00015936
     atom   49 type  1   force =    -0.00023914   -0.00036605   -0.00019405
     atom   50 type  1   force =     0.00006842    0.00013910    0.00009682
     atom   51 type  1   force =     0.00031150   -0.00018860   -0.00026048
     atom   52 type  2   force =    -0.00003634   -0.00009556   -0.00053195
     atom   53 type  2   force =    -0.00013749    0.00000994   -0.00017776
     atom   54 type  2   force =     0.00001040    0.00010022    0.00069192
     atom   55 type  1   force =     0.00008666   -0.00002859   -0.00013077
     atom   56 type  1   force =    -0.00025494    0.00000452   -0.00007743
     atom   57 type  1   force =    -0.00006473   -0.00027260   -0.00020046
     atom   58 type  1   force =     0.00012501    0.00025574   -0.00040744
     atom   59 type  1   force =    -0.00005581   -0.00018759   -0.00006796
     atom   60 type  1   force =    -0.00023660    0.00000156   -0.00070044
     atom   61 type  2   force =    -0.00030678    0.00000452   -0.00001576
     atom   62 type  2   force =    -0.00005110   -0.00010757    0.00019946
     atom   63 type  2   force =     0.00013228    0.00002520    0.00055867
     atom   64 type  1   force =     0.00014959   -0.00024179    0.00036374
     atom   65 type  1   force =    -0.00005684   -0.00002007    0.00041019
     atom   66 type  1   force =     0.00008923   -0.00018992    0.00032355
     atom   67 type  1   force =     0.00007205   -0.00015860    0.00009524
     atom   68 type  1   force =     0.00007093   -0.00003458    0.00021180
     atom   69 type  1   force =     0.00064258   -0.00000302    0.00013251
     atom   70 type  2   force =     0.00025823    0.00000080   -0.00007341
     atom   71 type  2   force =     0.00001513   -0.00008787    0.00071275
     atom   72 type  2   force =    -0.00012288   -0.00005941    0.00007726
     atom   73 type  3   force =     0.00038020    0.00020301    0.00008199
     atom   74 type  4   force =    -0.00012162   -0.00013213    0.00035761
     atom   75 type  4   force =    -0.00015212   -0.00020291   -0.00028300
     atom   76 type  4   force =    -0.00047676   -0.00015624    0.00004114
     atom   77 type  4   force =    -0.00021493    0.00017775   -0.00038532

     Total force =     0.003704     Total SCF correction =     0.000045
     Energy error            =      3.0E-05 Ry
     Gradient error          =      8.5E-04 Ry/Bohr

     bfgs converged in  35 scf cycles and  34 bfgs steps
     (criteria: energy <  1.0E-04 Ry, force <  1.0E-03 Ry/Bohr)

     End of BFGS Geometry Optimization

     Final energy             =  -12616.4677201757 Ry

     File tmp/CH4-H31_Rot60_ontop_/CH4-H31_Rot60_ontop_.bfgs deleted, as requested
Begin final coordinates

ATOMIC_POSITIONS (angstrom)
Cr              -1.5845703212        2.7671049202        8.1490630342
Cr               3.2019811468        0.0010550275        8.1500613203
Cr               0.7866326617        1.3531381282        8.1496455208
Cr               1.6411100598        2.8243154778        6.0191469909
Cr              -0.7372591476        1.2922360143        6.0198714033
Cr               1.4999759974        0.0008433193        6.0219578058
N                0.0083370574       -0.0011643302        4.9798889466
N                2.3832060636        1.3725195479        7.0071900468
N                0.0095188465        2.7452657273        7.0011765650
Cr              -1.6414145078        2.8567747309       12.4228402589
Cr               3.3007789798        0.0033268514       12.4250792747
Cr               0.7345934608        1.2570946183       12.4200897943
Cr               1.6000410490        2.7656073524       10.3478963999
Cr              -0.7722706704        1.3544940259       10.3473546575
Cr               1.5699972269        0.0003405857       10.3456722991
N                0.0090586796        0.0034840672        9.2343782492
N                2.3827530711        1.3733393189       11.4643143021
N                0.0094091685        2.7452080571       11.4723206850
Cr              -3.9605176063        6.8827928353        8.1521786161
Cr               0.8252477971        4.1163272602        8.1461640855
Cr              -1.5845479833        5.4656351279        8.1489415269
Cr              -0.7371888166        6.9403052195        6.0196832498
Cr              -3.1149875111        5.4076442023        6.0235553841
Cr              -0.8780557828        4.1162097776        6.0175839331
N               -2.3727793374        4.1161084004        4.9789205863
N                0.0094780315        5.4872863678        7.0010345678
N               -2.3659670723        6.8586570916        7.0060826351
Cr              -4.0140349900        6.9651342678       12.4228109353
Cr               0.9236539173        4.1166931849       12.4333319862
Cr              -1.6411175017        5.3766111675       12.4236620796
Cr              -0.7726086643        6.8784946898       10.3471527923
Cr              -3.1431854558        5.4704247386       10.3433740013
Cr              -0.8037143525        4.1166973213       10.3494518144
N               -2.3617291824        4.1165213537        9.2345460507
N                0.0093624307        5.4879077803       11.4721067886
N               -2.3662162313        6.8608734268       11.4674145970
Cr               3.1616161671        2.7648103368        8.1522953961
Cr               7.9534748575        0.0018432630        8.1501512676
Cr               5.5421188031        1.3498831640        8.1521946653
Cr               6.3877182407        2.8247441593        6.0236930409
Cr               4.0146837432        1.2943228361        6.0242081717
Cr               6.2514311642        0.0021005757        6.0220536220
N                4.7599223574        0.0041245764        4.9798351170
N                7.1367729122        1.3738963546        7.0063833251
N                4.7599853230        2.7438622321        7.0134110192
Cr               3.1206997313        2.8478395497       12.4160842726
Cr               8.0512809132        0.0002743348       12.4249308671
Cr               5.4887984679        1.2679608261       12.4230448216
Cr               6.3593206143        2.7627387453       10.3430186071
Cr               3.9769559462        1.3532427842       10.3433237429
Cr               6.3216139977        0.0032792152       10.3452035471
N                4.7602505841       -0.0003367086        9.2343557467
N                7.1364878082        1.3723321378       11.4669565085
N                4.7626539070        2.7447514154       11.4561914154
Cr               0.7864730822        6.8795316171        8.1496219244
Cr               5.5788614347        4.1163593502        8.1536269394
Cr               3.1617528065        5.4679148875        8.1523308256
Cr               4.0145572042        6.9381799350        6.0242059121
Cr               1.6411628279        5.4081449880        6.0192319398
Cr               3.8781420466        4.1162957568        6.0272471832
N                2.3906308769        4.1162443950        4.9796669612
N                4.7600657690        5.4888280108        7.0133633418
N                2.3831567346        6.8600255032        7.0073062349
Cr               0.7340177139        6.9772674208       12.4185443341
Cr               5.6768392369        4.1164048892       12.4186608624
Cr               3.1208136690        5.3854050525       12.4168483698
Cr               3.9770180549        6.8797662424       10.3433981423
Cr               1.6001948951        5.4673699845       10.3478816055
Cr               3.9446946881        4.1165942968       10.3407598155
N                2.3799889990        4.1163802633        9.2331922078
N                4.7626135002        5.4881821556       11.4564152639
N                2.3829196325        6.8595630028       11.4641352474
C                0.7842768114        4.0905090094       16.0234474205
H                0.9958998114        4.1958141360       17.0940236429
H                1.5383760349        3.4373864999       15.5660305481
H               -0.2110198660        3.6546827190       15.8812263286
H                0.8220631472        5.0785902429       15.5474193606
End final coordinates



     Writing all to output data dir tmp/CH4-H31_Rot60_ontop_/CH4-H31_Rot60_ontop_.save/ :
     XML data file, charge density, pseudopotentials, collected wavefunctions
 
     init_run     :     18.57s CPU     19.42s WALL (       1 calls)
     electrons    :  62071.43s CPU  63772.02s WALL (      35 calls)
     update_pot   :     43.34s CPU     45.26s WALL (      34 calls)
     forces       :    361.98s CPU    378.45s WALL (      35 calls)
     force_dftd3  :      7.39s CPU      7.77s WALL (      35 calls)

     Called by init_run:
     wfcinit      :     14.23s CPU     14.64s WALL (       1 calls)
     potinit      :      1.03s CPU      1.18s WALL (       1 calls)
     hinit0       :      0.35s CPU      0.43s WALL (       1 calls)

     Called by electrons:
     c_bands      :  51139.39s CPU  52238.78s WALL (    1536 calls)
     sum_band     :   8618.32s CPU   8930.42s WALL (    1536 calls)
     v_of_rho     :    895.14s CPU    960.82s WALL (    1567 calls)
     newd         :    672.80s CPU    868.55s WALL (    1567 calls)
     PAW_pot      :    574.68s CPU    582.18s WALL (    1601 calls)
     mix_rho      :    126.85s CPU    137.02s WALL (    1536 calls)
     energy_dftd3 :      3.99s CPU      4.02s WALL (      35 calls)

     Called by c_bands:
     init_us_2    :    866.30s CPU    877.88s WALL (    9426 calls)
     cegterg      :  47993.99s CPU  49064.36s WALL (    4608 calls)

     Called by *egterg:
     cdiaghg      :   1750.87s CPU   1771.72s WALL (   16268 calls)
     h_psi        :  23423.03s CPU  23885.48s WALL (   16385 calls)
     s_psi        :   5587.19s CPU   5649.21s WALL (   16385 calls)
     g_psi        :    106.67s CPU    108.11s WALL (   11774 calls)

     Called by h_psi:
     h_psi:calbec :   5591.76s CPU   5653.25s WALL (   16385 calls)
     vloc_psi     :  12036.08s CPU  12244.24s WALL (   16385 calls)
                                        0.00s GPU  (   16385 calls)
     add_vuspsi   :   5608.21s CPU   5669.15s WALL (   16385 calls)

     General routines
     calbec       :   8471.30s CPU   8562.45s WALL (   21515 calls)
     fft          :    711.60s CPU    770.87s WALL (   20724 calls)
     ffts         :      9.33s CPU     10.79s WALL (    3103 calls)
     fftw         :  11818.68s CPU  12013.71s WALL (11628776 calls)
     interpolate  :     52.22s CPU     58.11s WALL (    1567 calls)
 
     Parallel routines
 
     PWSCF        :     17h23m CPU     17h52m WALL

 
   This run was terminated on:  21:35: 8   5Jun2026            

=------------------------------------------------------------------------------=
   JOB DONE.
=------------------------------------------------------------------------------=
