
     Program PWSCF v.7.5 starts on 25Jun2026 at 18:26:49 

     This program is part of the open-source Quantum ESPRESSO suite
     for quantum simulation of materials; please cite
         "P. Giannozzi et al., J. Phys.:Condens. Matter 21 395502 (2009);
         "P. Giannozzi et al., J. Phys.:Condens. Matter 29 465901 (2017);
         "P. Giannozzi et al., J. Chem. Phys. 152 154105 (2020);
          URL http://www.quantum-espresso.org", 
     in publications or presentations arising from this work. More details at
     http://www.quantum-espresso.org/quote

     Parallel version (MPI & OpenMP), running on      64 processor cores
     Number of MPI processes:                64
     Threads/MPI process:                     1

     MPI processes distributed on     1 nodes
     837087 MiB available memory on the printing compute node when the environment starts
 
     Reading input from cr2n_slab.in
Warning: card &CELL ignored

     Current dimensions of program PWSCF are:
     Max number of different atomic species (ntypx) = 10
     Max number of k-points (npk) =  40000
     Max angular momentum in pseudopotentials (lmaxx) =  4
     file Cr.pbe-spn-kjpaw_psl.1.0.0.UPF: wavefunction(s)  3S 3P 3D renormalized
     file N.pbe-n-kjpaw_psl.1.0.0.UPF: wavefunction(s)  2S renormalized
     Found identity + (  0.0000 -0.5000 -0.0000) symmetry
     This is a supercell, fractional translations are disabled
 
     K-points division:     npool     =       4
     R & G space division:  proc/nbgrp/npool/nimage =      16
     Subspace diagonalization in iterative solution of the eigenvalue problem:
     one sub-group per band group will be used
     scalapack distributed-memory algorithm (size of sub-group:  4*  4 procs)

 
     Parallelization info
     --------------------
     sticks:   dense  smooth     PW     G-vecs:    dense   smooth      PW
     Min        1166     388    104               281408    54158    7640
     Max        1167     389    105               281417    54165    7647
     Sum       18661    6217   1675              4502593   866593  122299
 
     Using Slab Decomposition
 


     bravais-lattice index     =            0
     lattice parameter (alat)  =      17.9576  a.u.
     unit-cell volume          =   10952.5767 (a.u.)^3
     number of atoms/cell      =           72
     number of atomic types    =            2
     number of electrons       =       792.00
     number of Kohn-Sham states=          475
     kinetic-energy cutoff     =      70.0000  Ry
     charge density cutoff     =     840.0000  Ry
     scf convergence threshold =      1.0E-08
     mixing beta               =       0.2000
     number of iterations used =            8  plain     mixing
     energy convergence thresh.=      1.0E-04
     force convergence thresh. =      1.0E-03
     Exchange-correlation= SLA  PW   PBX  PBC
                           (   1   4   3   4   0   0   0)
     nstep                     =          200


     celldm(1)=  17.957575  celldm(2)=   0.000000  celldm(3)=   0.000000
     celldm(4)=   0.000000  celldm(5)=   0.000000  celldm(6)=   0.000000

     crystal axes: (cart. coord. in units of alat)
               a(1) = (   1.000000   0.000000   0.000000 )  
               a(2) = (  -0.500000   0.866025   0.000000 )  
               a(3) = (   0.000000   0.000000   2.183951 )  

     reciprocal axes: (cart. coord. in units 2 pi/alat)
               b(1) = (  1.000000  0.577351  0.000000 )  
               b(2) = (  0.000000  1.154701  0.000000 )  
               b(3) = (  0.000000  0.000000  0.457886 )  


     PseudoPot. # 1 for Cr read from file:
     /home/tomas.rojas_s/pseudo/Cr.pbe-spn-kjpaw_psl.1.0.0.UPF
     MD5 check sum: 198f1a2427a48552563eee314eba32ba
     Pseudo is Projector augmented-wave + core cor, Zval = 14.0
     Generated using &quot;atomic&quot; code by A. Dal Corso  v.6.3
     Shape of augmentation charge: PSQ
     Using radial grid of 1183 points,  6 beta functions with: 
                l(1) =   0
                l(2) =   0
                l(3) =   1
                l(4) =   1
                l(5) =   2
                l(6) =   2
     Q(r) pseudized with 0 coefficients 


     PseudoPot. # 2 for N  read from file:
     /home/tomas.rojas_s/pseudo/N.pbe-n-kjpaw_psl.1.0.0.UPF
     MD5 check sum: 14c48229446f9f2d411169a3abcbc3fa
     Pseudo is Projector augmented-wave + core cor, Zval =  5.0
     Generated using &quot;atomic&quot; code by A. Dal Corso  v.6.3
     Shape of augmentation charge: PSQ
     Using radial grid of 1085 points,  4 beta functions with: 
                l(1) =   0
                l(2) =   0
                l(3) =   1
                l(4) =   1
     Q(r) pseudized with 0 coefficients 


     atomic species   valence    mass     pseudopotential
     Cr               14.00    51.99610     Cr( 1.00)
     N                 5.00    14.00670     N ( 1.00)

     No symmetry found



   Cartesian axes

     site n.     atom                  positions (alat units)
         1        Cr     tau(   1) = (  -0.1681591   0.2912601   2.4458920  )
         2        Cr     tau(   2) = (   0.3363182   0.0000000   2.4458920  )
         3        Cr     tau(   3) = (   0.0818405   0.1417518   2.4458915  )
         4        Cr     tau(   4) = (   0.1684970   0.2918454   2.2210681  )
         5        Cr     tau(   5) = (  -0.0815030   0.1411673   2.2210681  )
         6        Cr     tau(   6) = (   0.1630059   0.0000000   2.2210681  )
         7        N      tau(   7) = (   0.0000000   0.0000000   2.1046563  )
         8        N      tau(   8) = (   0.2500000   0.1443376   2.3270501  )
         9        N      tau(   9) = (   0.0000000   0.2886752   2.3270501  )
        10        Cr     tau(  10) = (  -0.1730001   0.2996450   2.8933649  )
        11        Cr     tau(  11) = (   0.3460003   0.0000000   2.8933649  )
        12        Cr     tau(  12) = (   0.0770029   0.1333729   2.8933667  )
        13        Cr     tau(  13) = (   0.1677092   0.2904808   2.6753853  )
        14        Cr     tau(  14) = (  -0.0822901   0.1425306   2.6753860  )
        15        Cr     tau(  15) = (   0.1645802   0.0000000   2.6753860  )
        16        N      tau(  16) = (   0.0000000   0.0000000   2.5593412  )
        17        N      tau(  17) = (   0.2500004   0.1443372   2.7930547  )
        18        N      tau(  18) = (  -0.0000005   0.2886753   2.7930547  )
        19        Cr     tau(  19) = (  -0.4181595   0.7242736   2.4458915  )
        20        Cr     tau(  20) = (   0.0863184   0.4330126   2.4458923  )
        21        Cr     tau(  21) = (  -0.1681593   0.5747652   2.4458923  )
        22        Cr     tau(  22) = (  -0.0815030   0.7248581   2.2210681  )
        23        Cr     tau(  23) = (  -0.3315030   0.5741800   2.2210681  )
        24        Cr     tau(  24) = (  -0.0869941   0.4330127   2.2210681  )
        25        N      tau(  25) = (  -0.2500000   0.4330127   2.1046563  )
        26        N      tau(  26) = (   0.0000000   0.5773503   2.3270503  )
        27        N      tau(  27) = (  -0.2500000   0.7216878   2.3270501  )
        28        Cr     tau(  28) = (  -0.4229971   0.7326525   2.8933667  )
        29        Cr     tau(  29) = (   0.0959968   0.4330121   2.8933671  )
        30        Cr     tau(  30) = (  -0.1729989   0.5663837   2.8933671  )
        31        Cr     tau(  31) = (  -0.0822898   0.7234940   2.6753854  )
        32        Cr     tau(  32) = (  -0.3322908   0.5755446   2.6753853  )
        33        Cr     tau(  33) = (  -0.0854193   0.4330133   2.6753854  )
        34        N      tau(  34) = (  -0.2500001   0.4330128   2.5593412  )
        35        N      tau(  35) = (   0.0000000   0.5773503   2.7930556  )
        36        N      tau(  36) = (  -0.2499996   0.7216882   2.7930547  )
        37        Cr     tau(  37) = (   0.3318407   0.2912602   2.4458923  )
        38        Cr     tau(  38) = (   0.8363191   0.0000000   2.4458915  )
        39        Cr     tau(  39) = (   0.5818409   0.1417524   2.4458923  )
        40        Cr     tau(  40) = (   0.6684970   0.2918454   2.2210681  )
        41        Cr     tau(  41) = (   0.4184970   0.1411673   2.2210681  )
        42        Cr     tau(  42) = (   0.6630059   0.0000000   2.2210681  )
        43        N      tau(  43) = (   0.5000000   0.0000000   2.1046563  )
        44        N      tau(  44) = (   0.7500000   0.1443376   2.3270501  )
        45        N      tau(  45) = (   0.5000000   0.2886751   2.3270503  )
        46        Cr     tau(  46) = (   0.3270011   0.2996417   2.8933671  )
        47        Cr     tau(  47) = (   0.8459942   0.0000000   2.8933667  )
        48        Cr     tau(  48) = (   0.5770021   0.1333704   2.8933671  )
        49        Cr     tau(  49) = (   0.6677091   0.2904819   2.6753854  )
        50        Cr     tau(  50) = (   0.4177102   0.1425314   2.6753854  )
        51        Cr     tau(  51) = (   0.6645817   0.0000000   2.6753853  )
        52        N      tau(  52) = (   0.5000001   0.0000000   2.5593412  )
        53        N      tau(  53) = (   0.7500001   0.1443381   2.7930547  )
        54        N      tau(  54) = (   0.5000000   0.2886751   2.7930556  )
        55        Cr     tau(  55) = (   0.0818409   0.7242730   2.4458923  )
        56        Cr     tau(  56) = (   0.5863184   0.4330128   2.4458923  )
        57        Cr     tau(  57) = (   0.3318409   0.5747653   2.4458920  )
        58        Cr     tau(  58) = (   0.4184970   0.7248581   2.2210681  )
        59        Cr     tau(  59) = (   0.1684970   0.5741800   2.2210681  )
        60        Cr     tau(  60) = (   0.4130059   0.4330127   2.2210681  )
        61        N      tau(  61) = (   0.2500000   0.4330127   2.1046563  )
        62        N      tau(  62) = (   0.5000000   0.5773502   2.3270501  )
        63        N      tau(  63) = (   0.2500000   0.7216878   2.3270501  )
        64        Cr     tau(  64) = (   0.0770021   0.7326550   2.8933671  )
        65        Cr     tau(  65) = (   0.5959968   0.4330133   2.8933671  )
        66        Cr     tau(  66) = (   0.3269999   0.5663804   2.8933649  )
        67        Cr     tau(  67) = (   0.4177099   0.7234948   2.6753860  )
        68        Cr     tau(  68) = (   0.1677091   0.5755435   2.6753854  )
        69        Cr     tau(  69) = (   0.4145807   0.4330121   2.6753854  )
        70        N      tau(  70) = (   0.2499999   0.4330126   2.5593412  )
        71        N      tau(  71) = (   0.4999995   0.5773501   2.7930547  )
        72        N      tau(  72) = (   0.2500001   0.7216873   2.7930547  )

     --------------------------------------------
     DFT-D3 Dispersion Correction (3-body terms):
     --------------------------------------------
       Reference C6 values for interpolation: 

         atom   Coordination number   C6
         N          0.000            50.54
         N          0.994            44.25
         N          2.014            39.35
         N          2.990            31.16
         Cr         0.000          1381.48
         Cr         1.827           571.38
         Cr        10.619           306.69

       Values used:

         atom   Coordination number  R0_AB[au]  C6      C8
         Cr        12.627            3.252    306.69  28303.74
         Cr        12.627            3.252    306.69  28303.74
         Cr        12.627            3.252    306.69  28303.74
         Cr        10.142            3.252    306.69  28303.74
         Cr        10.142            3.252    306.69  28303.74
         Cr        10.142            3.252    306.69  28303.74
         N          3.022            2.478     31.29    690.37
         N          6.023            2.478     31.16    687.49
         N          6.023            2.478     31.16    687.49
         Cr         9.070            3.252    306.69  28303.74
         Cr         9.070            3.252    306.69  28303.74
         Cr         9.070            3.252    306.69  28303.74
         Cr        12.747            3.252    306.69  28303.74
         Cr        12.747            3.252    306.69  28303.74
         Cr        12.747            3.252    306.69  28303.74
         N          6.047            2.478     31.16    687.49
         N          6.032            2.478     31.16    687.49
         N          6.032            2.478     31.16    687.49
         Cr        12.627            3.252    306.69  28303.74
         Cr        12.627            3.252    306.69  28303.74
         Cr        12.627            3.252    306.69  28303.74
         Cr        10.142            3.252    306.69  28303.74
         Cr        10.142            3.252    306.69  28303.74
         Cr        10.142            3.252    306.69  28303.74
         N          3.022            2.478     31.29    690.37
         N          6.023            2.478     31.16    687.49
         N          6.023            2.478     31.16    687.49
         Cr         9.070            3.252    306.69  28303.74
         Cr         9.070            3.252    306.69  28303.74
         Cr         9.070            3.252    306.69  28303.74
         Cr        12.747            3.252    306.69  28303.74
         Cr        12.747            3.252    306.69  28303.74
         Cr        12.747            3.252    306.69  28303.74
         N          6.047            2.478     31.16    687.49
         N          6.032            2.478     31.16    687.49
         N          6.032            2.478     31.16    687.49
         Cr        12.627            3.252    306.69  28303.74
         Cr        12.627            3.252    306.69  28303.74
         Cr        12.627            3.252    306.69  28303.74
         Cr        10.142            3.252    306.69  28303.74
         Cr        10.142            3.252    306.69  28303.74
         Cr        10.142            3.252    306.69  28303.74
         N          3.022            2.478     31.29    690.37
         N          6.023            2.478     31.16    687.49
         N          6.023            2.478     31.16    687.49
         Cr         9.070            3.252    306.69  28303.74
         Cr         9.070            3.252    306.69  28303.74
         Cr         9.070            3.252    306.69  28303.74
         Cr        12.747            3.252    306.69  28303.74
         Cr        12.747            3.252    306.69  28303.74
         Cr        12.747            3.252    306.69  28303.74
         N          6.047            2.478     31.16    687.49
         N          6.032            2.478     31.16    687.49
         N          6.032            2.478     31.16    687.49
         Cr        12.627            3.252    306.69  28303.74
         Cr        12.627            3.252    306.69  28303.74
         Cr        12.627            3.252    306.69  28303.74
         Cr        10.142            3.252    306.69  28303.74
         Cr        10.142            3.252    306.69  28303.74
         Cr        10.142            3.252    306.69  28303.74
         N          3.022            2.478     31.29    690.37
         N          6.023            2.478     31.16    687.49
         N          6.023            2.478     31.16    687.49
         Cr         9.070            3.252    306.69  28303.74
         Cr         9.070            3.252    306.69  28303.74
         Cr         9.070            3.252    306.69  28303.74
         Cr        12.747            3.252    306.69  28303.74
         Cr        12.747            3.252    306.69  28303.74
         Cr        12.747            3.252    306.69  28303.74
         N          6.047            2.478     31.16    687.49
         N          6.032            2.478     31.16    687.49
         N          6.032            2.478     31.16    687.49

         Molecular C6 ( Ry / a.u.^6 ) =    943546.70


     number of k points=    10  Methfessel-Paxton smearing, width (Ry)=  0.0200
                       cart. coord. in units 2pi/alat
        k(    1) = (   0.0000000   0.0000000   0.0000000), wk =   0.1250000
        k(    2) = (   0.0000000   0.2886753   0.0000000), wk =   0.2500000
        k(    3) = (   0.0000000  -0.5773505   0.0000000), wk =   0.1250000
        k(    4) = (   0.2500000   0.1443376   0.0000000), wk =   0.2500000
        k(    5) = (   0.2500000   0.4330129   0.0000000), wk =   0.2500000
        k(    6) = (   0.2500000  -0.4330129   0.0000000), wk =   0.2500000
        k(    7) = (   0.2500000  -0.1443376   0.0000000), wk =   0.2500000
        k(    8) = (  -0.5000000  -0.2886753   0.0000000), wk =   0.1250000
        k(    9) = (  -0.5000000   0.0000000   0.0000000), wk =   0.2500000
        k(   10) = (  -0.5000000  -0.8660258   0.0000000), wk =   0.1250000

     Dense  grid:  4502593 G-vectors     FFT dimensions: ( 180, 180, 375)

     Smooth grid:   866593 G-vectors     FFT dimensions: (  96,  96, 216)

     Estimated max dynamical RAM per process >     841.72 MB

     Estimated total dynamical RAM >      49.39 GB

     Initial potential from superposition of free atoms

     starting charge     791.9627, renormalised to     792.0000

     negative rho (up, down):  5.607E-04 0.000E+00
     Starting wfcs are  576 randomized atomic wfcs
     Checking if some PAW data can be deallocated... 

     total cpu time spent up to now is       19.5 secs

     Self-consistent Calculation

     iteration #  1     ecut=    70.00 Ry     beta= 0.20
     Davidson diagonalization with overlap
     ethr =  1.00E-02,  avg # of iterations =  2.8

     negative rho (up, down):  2.367E-04 0.000E+00

     total cpu time spent up to now is       65.2 secs

     total energy              =  -12587.16559552 Ry
     estimated scf accuracy    <      29.29698965 Ry

     iteration #  2     ecut=    70.00 Ry     beta= 0.20
     Davidson diagonalization with overlap
     ethr =  3.70E-03,  avg # of iterations =  6.6

     negative rho (up, down):  6.307E-04 0.000E+00

     total cpu time spent up to now is      121.8 secs

     total energy              =  -12576.37182387 Ry
     estimated scf accuracy    <     714.83679253 Ry

     iteration #  3     ecut=    70.00 Ry     beta= 0.20
     Davidson diagonalization with overlap
     ethr =  3.70E-03,  avg # of iterations =  3.9

     negative rho (up, down):  8.641E-04 0.000E+00

     total cpu time spent up to now is      164.5 secs

     total energy              =  -12585.39048778 Ry
     estimated scf accuracy    <     505.32998698 Ry

     iteration #  4     ecut=    70.00 Ry     beta= 0.20
     Davidson diagonalization with overlap
     ethr =  3.70E-03,  avg # of iterations =  2.0

     negative rho (up, down):  4.165E-04 0.000E+00

     total cpu time spent up to now is      204.8 secs

     total energy              =  -12591.90166097 Ry
     estimated scf accuracy    <      73.99566203 Ry

     iteration #  5     ecut=    70.00 Ry     beta= 0.20
     Davidson diagonalization with overlap
     ethr =  3.70E-03,  avg # of iterations =  1.8

     negative rho (up, down):  4.727E-04 0.000E+00

     total cpu time spent up to now is      244.4 secs

     total energy              =  -12592.75713840 Ry
     estimated scf accuracy    <       3.97005916 Ry

     iteration #  6     ecut=    70.00 Ry     beta= 0.20
     Davidson diagonalization with overlap
     ethr =  5.01E-04,  avg # of iterations = 11.5

     negative rho (up, down):  5.224E-04 0.000E+00

     total cpu time spent up to now is      297.9 secs

     total energy              =  -12593.10035960 Ry
     estimated scf accuracy    <       4.80026248 Ry

     iteration #  7     ecut=    70.00 Ry     beta= 0.20
     Davidson diagonalization with overlap
     ethr =  5.01E-04,  avg # of iterations =  1.0

     negative rho (up, down):  5.806E-04 0.000E+00

     total cpu time spent up to now is      333.3 secs

     total energy              =  -12593.15256294 Ry
     estimated scf accuracy    <       1.92970137 Ry

     iteration #  8     ecut=    70.00 Ry     beta= 0.20
     Davidson diagonalization with overlap
     ethr =  2.44E-04,  avg # of iterations =  1.0

     negative rho (up, down):  5.868E-04 0.000E+00

     total cpu time spent up to now is      368.3 secs

     total energy              =  -12593.17499490 Ry
     estimated scf accuracy    <       0.83750750 Ry

     iteration #  9     ecut=    70.00 Ry     beta= 0.20
     Davidson diagonalization with overlap
     ethr =  1.06E-04,  avg # of iterations =  2.0

     negative rho (up, down):  4.721E-04 0.000E+00

     total cpu time spent up to now is      408.3 secs

     total energy              =  -12593.16446573 Ry
     estimated scf accuracy    <       0.74083447 Ry

     iteration # 10     ecut=    70.00 Ry     beta= 0.20
     Davidson diagonalization with overlap
     ethr =  9.35E-05,  avg # of iterations =  1.2

     negative rho (up, down):  3.966E-04 0.000E+00

     total cpu time spent up to now is      445.9 secs

     total energy              =  -12593.16654422 Ry
     estimated scf accuracy    <       0.36137534 Ry

     iteration # 11     ecut=    70.00 Ry     beta= 0.20
     Davidson diagonalization with overlap
     c_bands:  1 eigenvalues not converged
     ethr =  4.56E-05,  avg # of iterations =  8.1

     negative rho (up, down):  4.239E-04 0.000E+00

     total cpu time spent up to now is      491.9 secs

     total energy              =  -12593.17237771 Ry
     estimated scf accuracy    <       0.22249376 Ry

     iteration # 12     ecut=    70.00 Ry     beta= 0.20
     Davidson diagonalization with overlap
     ethr =  2.81E-05,  avg # of iterations = 11.2

     negative rho (up, down):  3.918E-04 0.000E+00

     total cpu time spent up to now is      539.6 secs

     total energy              =  -12593.17158062 Ry
     estimated scf accuracy    <       0.47460330 Ry

     iteration # 13     ecut=    70.00 Ry     beta= 0.20
     Davidson diagonalization with overlap
     ethr =  2.81E-05,  avg # of iterations =  1.4

     negative rho (up, down):  2.880E-04 0.000E+00

     total cpu time spent up to now is      578.5 secs

     total energy              =  -12593.17895229 Ry
     estimated scf accuracy    <       0.11831978 Ry

     iteration # 14     ecut=    70.00 Ry     beta= 0.20
     Davidson diagonalization with overlap
     ethr =  1.49E-05,  avg # of iterations =  9.0

     negative rho (up, down):  2.663E-04 0.000E+00

     total cpu time spent up to now is      623.5 secs

     total energy              =  -12593.18027114 Ry
     estimated scf accuracy    <       0.06683817 Ry

     iteration # 15     ecut=    70.00 Ry     beta= 0.20
     Davidson diagonalization with overlap
     c_bands:  2 eigenvalues not converged
     ethr =  8.44E-06,  avg # of iterations = 14.6

     negative rho (up, down):  2.342E-04 0.000E+00

     total cpu time spent up to now is      676.4 secs

     total energy              =  -12593.18016978 Ry
     estimated scf accuracy    <       0.10706775 Ry

     iteration # 16     ecut=    70.00 Ry     beta= 0.20
     Davidson diagonalization with overlap
     ethr =  8.44E-06,  avg # of iterations =  3.7

     negative rho (up, down):  2.450E-04 0.000E+00

     total cpu time spent up to now is      718.2 secs

     total energy              =  -12593.18167159 Ry
     estimated scf accuracy    <       0.13025356 Ry

     iteration # 17     ecut=    70.00 Ry     beta= 0.20
     Davidson diagonalization with overlap
     ethr =  8.44E-06,  avg # of iterations =  1.4

     negative rho (up, down):  2.368E-04 0.000E+00

     total cpu time spent up to now is      757.0 secs

     total energy              =  -12593.18312456 Ry
     estimated scf accuracy    <       0.01816572 Ry

     iteration # 18     ecut=    70.00 Ry     beta= 0.20
     Davidson diagonalization with overlap
     ethr =  2.29E-06,  avg # of iterations = 10.7

     negative rho (up, down):  2.340E-04 0.000E+00

     total cpu time spent up to now is      808.5 secs

     total energy              =  -12593.18365374 Ry
     estimated scf accuracy    <       0.01217660 Ry

     iteration # 19     ecut=    70.00 Ry     beta= 0.20
     Davidson diagonalization with overlap
     ethr =  1.54E-06,  avg # of iterations =  2.0

     negative rho (up, down):  2.374E-04 0.000E+00

     total cpu time spent up to now is      846.6 secs

     total energy              =  -12593.18387522 Ry
     estimated scf accuracy    <       0.00489325 Ry

     iteration # 20     ecut=    70.00 Ry     beta= 0.20
     Davidson diagonalization with overlap
     ethr =  6.18E-07,  avg # of iterations =  2.9

     negative rho (up, down):  2.427E-04 0.000E+00

     total cpu time spent up to now is      887.2 secs

     total energy              =  -12593.18409223 Ry
     estimated scf accuracy    <       0.00228054 Ry

     iteration # 21     ecut=    70.00 Ry     beta= 0.20
     Davidson diagonalization with overlap
     ethr =  2.88E-07,  avg # of iterations =  3.5

     negative rho (up, down):  2.433E-04 0.000E+00

     total cpu time spent up to now is      928.7 secs

     total energy              =  -12593.18411333 Ry
     estimated scf accuracy    <       0.00465573 Ry

     iteration # 22     ecut=    70.00 Ry     beta= 0.20
     Davidson diagonalization with overlap
     ethr =  2.88E-07,  avg # of iterations =  1.9

     negative rho (up, down):  2.500E-04 0.000E+00

     total cpu time spent up to now is      968.7 secs

     total energy              =  -12593.18416591 Ry
     estimated scf accuracy    <       0.00515120 Ry

     iteration # 23     ecut=    70.00 Ry     beta= 0.20
     Davidson diagonalization with overlap
     ethr =  2.88E-07,  avg # of iterations =  1.1

     negative rho (up, down):  2.511E-04 0.000E+00

     total cpu time spent up to now is     1005.2 secs

     total energy              =  -12593.18432310 Ry
     estimated scf accuracy    <       0.00047824 Ry

     iteration # 24     ecut=    70.00 Ry     beta= 0.20
     Davidson diagonalization with overlap
     ethr =  6.04E-08,  avg # of iterations =  5.4

     negative rho (up, down):  2.504E-04 0.000E+00

     total cpu time spent up to now is     1048.3 secs

     total energy              =  -12593.18433522 Ry
     estimated scf accuracy    <       0.00064612 Ry

     iteration # 25     ecut=    70.00 Ry     beta= 0.20
     Davidson diagonalization with overlap
     ethr =  6.04E-08,  avg # of iterations =  1.0

     negative rho (up, down):  2.509E-04 0.000E+00

     total cpu time spent up to now is     1083.7 secs

     total energy              =  -12593.18434333 Ry
     estimated scf accuracy    <       0.00029696 Ry

     iteration # 26     ecut=    70.00 Ry     beta= 0.20
     Davidson diagonalization with overlap
     ethr =  3.75E-08,  avg # of iterations =  2.1

     negative rho (up, down):  2.512E-04 0.000E+00

     total cpu time spent up to now is     1124.1 secs

     total energy              =  -12593.18434808 Ry
     estimated scf accuracy    <       0.00057229 Ry

     iteration # 27     ecut=    70.00 Ry     beta= 0.20
     Davidson diagonalization with overlap
     ethr =  3.75E-08,  avg # of iterations =  1.1

     negative rho (up, down):  2.503E-04 0.000E+00

     total cpu time spent up to now is     1160.5 secs

     total energy              =  -12593.18434563 Ry
     estimated scf accuracy    <       0.00074803 Ry

     iteration # 28     ecut=    70.00 Ry     beta= 0.20
     Davidson diagonalization with overlap
     ethr =  3.75E-08,  avg # of iterations =  1.1

     negative rho (up, down):  2.503E-04 0.000E+00

     total cpu time spent up to now is     1196.9 secs

     total energy              =  -12593.18434910 Ry
     estimated scf accuracy    <       0.00044864 Ry

     iteration # 29     ecut=    70.00 Ry     beta= 0.20
     Davidson diagonalization with overlap
     ethr =  3.75E-08,  avg # of iterations =  1.0

     negative rho (up, down):  2.503E-04 0.000E+00

     total cpu time spent up to now is     1232.1 secs

     total energy              =  -12593.18435970 Ry
     estimated scf accuracy    <       0.00008624 Ry

     iteration # 30     ecut=    70.00 Ry     beta= 0.20
     Davidson diagonalization with overlap
     ethr =  1.09E-08,  avg # of iterations =  1.8

     negative rho (up, down):  2.496E-04 0.000E+00

     total cpu time spent up to now is     1271.6 secs

     total energy              =  -12593.18436012 Ry
     estimated scf accuracy    <       0.00002578 Ry

     iteration # 31     ecut=    70.00 Ry     beta= 0.20
     Davidson diagonalization with overlap
     ethr =  3.26E-09,  avg # of iterations =  4.9

     negative rho (up, down):  2.495E-04 0.000E+00

     total cpu time spent up to now is     1314.0 secs

     total energy              =  -12593.18435932 Ry
     estimated scf accuracy    <       0.00004289 Ry

     iteration # 32     ecut=    70.00 Ry     beta= 0.20
     Davidson diagonalization with overlap
     ethr =  3.26E-09,  avg # of iterations =  1.1

     negative rho (up, down):  2.492E-04 0.000E+00

     total cpu time spent up to now is     1350.3 secs

     total energy              =  -12593.18435938 Ry
     estimated scf accuracy    <       0.00001459 Ry

     iteration # 33     ecut=    70.00 Ry     beta= 0.20
     Davidson diagonalization with overlap
     ethr =  1.84E-09,  avg # of iterations =  3.3

     negative rho (up, down):  2.483E-04 0.000E+00

     total cpu time spent up to now is     1391.5 secs

     total energy              =  -12593.18435735 Ry
     estimated scf accuracy    <       0.00001757 Ry

     iteration # 34     ecut=    70.00 Ry     beta= 0.20
     Davidson diagonalization with overlap
     ethr =  1.84E-09,  avg # of iterations =  1.0

     negative rho (up, down):  2.483E-04 0.000E+00

     total cpu time spent up to now is     1426.7 secs

     total energy              =  -12593.18435691 Ry
     estimated scf accuracy    <       0.00002568 Ry

     iteration # 35     ecut=    70.00 Ry     beta= 0.20
     Davidson diagonalization with overlap
     ethr =  1.84E-09,  avg # of iterations =  1.1

     negative rho (up, down):  2.483E-04 0.000E+00

     total cpu time spent up to now is     1463.1 secs

     total energy              =  -12593.18435743 Ry
     estimated scf accuracy    <       0.00000716 Ry

     iteration # 36     ecut=    70.00 Ry     beta= 0.20
     Davidson diagonalization with overlap
     ethr =  9.04E-10,  avg # of iterations =  2.0

     negative rho (up, down):  2.481E-04 0.000E+00

     total cpu time spent up to now is     1503.5 secs

     total energy              =  -12593.18435729 Ry
     estimated scf accuracy    <       0.00001724 Ry

     iteration # 37     ecut=    70.00 Ry     beta= 0.20
     Davidson diagonalization with overlap
     ethr =  9.04E-10,  avg # of iterations =  1.0

     negative rho (up, down):  2.479E-04 0.000E+00

     total cpu time spent up to now is     1538.6 secs

     total energy              =  -12593.18435736 Ry
     estimated scf accuracy    <       0.00000566 Ry

     iteration # 38     ecut=    70.00 Ry     beta= 0.20
     Davidson diagonalization with overlap
     ethr =  7.15E-10,  avg # of iterations =  1.2

     negative rho (up, down):  2.479E-04 0.000E+00

     total cpu time spent up to now is     1575.2 secs

     total energy              =  -12593.18435722 Ry
     estimated scf accuracy    <       0.00000705 Ry

     iteration # 39     ecut=    70.00 Ry     beta= 0.20
     Davidson diagonalization with overlap
     ethr =  7.15E-10,  avg # of iterations =  1.0

     negative rho (up, down):  2.478E-04 0.000E+00

     total cpu time spent up to now is     1610.5 secs

     total energy              =  -12593.18435738 Ry
     estimated scf accuracy    <       0.00000198 Ry

     iteration # 40     ecut=    70.00 Ry     beta= 0.20
     Davidson diagonalization with overlap
     ethr =  2.50E-10,  avg # of iterations =  2.0

     negative rho (up, down):  2.476E-04 0.000E+00

     total cpu time spent up to now is     1650.4 secs

     total energy              =  -12593.18435734 Ry
     estimated scf accuracy    <       0.00000336 Ry

     iteration # 41     ecut=    70.00 Ry     beta= 0.20
     Davidson diagonalization with overlap
     ethr =  2.50E-10,  avg # of iterations =  1.1

     negative rho (up, down):  2.475E-04 0.000E+00

     total cpu time spent up to now is     1686.7 secs

     total energy              =  -12593.18435733 Ry
     estimated scf accuracy    <       0.00000258 Ry

     iteration # 42     ecut=    70.00 Ry     beta= 0.20
     Davidson diagonalization with overlap
     ethr =  2.50E-10,  avg # of iterations =  1.0

     negative rho (up, down):  2.475E-04 0.000E+00

     total cpu time spent up to now is     1722.1 secs

     total energy              =  -12593.18435738 Ry
     estimated scf accuracy    <       0.00000086 Ry

     iteration # 43     ecut=    70.00 Ry     beta= 0.20
     Davidson diagonalization with overlap
     ethr =  1.09E-10,  avg # of iterations =  1.7

     negative rho (up, down):  2.475E-04 0.000E+00

     total cpu time spent up to now is     1761.3 secs

     total energy              =  -12593.18435739 Ry
     estimated scf accuracy    <       0.00000102 Ry

     iteration # 44     ecut=    70.00 Ry     beta= 0.20
     Davidson diagonalization with overlap
     ethr =  1.09E-10,  avg # of iterations =  1.0

     negative rho (up, down):  2.474E-04 0.000E+00

     total cpu time spent up to now is     1796.5 secs

     total energy              =  -12593.18435741 Ry
     estimated scf accuracy    <       0.00000070 Ry

     iteration # 45     ecut=    70.00 Ry     beta= 0.20
     Davidson diagonalization with overlap
     ethr =  8.84E-11,  avg # of iterations =  1.0

     negative rho (up, down):  2.474E-04 0.000E+00

     total cpu time spent up to now is     1831.9 secs

     total energy              =  -12593.18435742 Ry
     estimated scf accuracy    <       0.00000063 Ry

     iteration # 46     ecut=    70.00 Ry     beta= 0.20
     Davidson diagonalization with overlap
     ethr =  7.91E-11,  avg # of iterations =  1.0

     negative rho (up, down):  2.474E-04 0.000E+00

     total cpu time spent up to now is     1867.1 secs

     total energy              =  -12593.18435744 Ry
     estimated scf accuracy    <       0.00000015 Ry

     iteration # 47     ecut=    70.00 Ry     beta= 0.20
     Davidson diagonalization with overlap
     ethr =  1.88E-11,  avg # of iterations =  3.2

     negative rho (up, down):  2.474E-04 0.000E+00

     total cpu time spent up to now is     1908.1 secs

     total energy              =  -12593.18435744 Ry
     estimated scf accuracy    <       0.00000034 Ry

     iteration # 48     ecut=    70.00 Ry     beta= 0.20
     Davidson diagonalization with overlap
     ethr =  1.88E-11,  avg # of iterations =  1.5

     negative rho (up, down):  2.473E-04 0.000E+00

     total cpu time spent up to now is     1946.4 secs

     total energy              =  -12593.18435744 Ry
     estimated scf accuracy    <       0.00000028 Ry

     iteration # 49     ecut=    70.00 Ry     beta= 0.20
     Davidson diagonalization with overlap
     ethr =  1.88E-11,  avg # of iterations =  1.3

     negative rho (up, down):  2.473E-04 0.000E+00

     total cpu time spent up to now is     1983.3 secs

     total energy              =  -12593.18435745 Ry
     estimated scf accuracy    <       0.00000023 Ry

     iteration # 50     ecut=    70.00 Ry     beta= 0.20
     Davidson diagonalization with overlap
     ethr =  1.88E-11,  avg # of iterations =  1.1

     negative rho (up, down):  2.473E-04 0.000E+00

     total cpu time spent up to now is     2019.4 secs

     total energy              =  -12593.18435745 Ry
     estimated scf accuracy    <       0.00000017 Ry

     iteration # 51     ecut=    70.00 Ry     beta= 0.20
     Davidson diagonalization with overlap
     ethr =  1.88E-11,  avg # of iterations =  1.0

     negative rho (up, down):  2.473E-04 0.000E+00

     total cpu time spent up to now is     2054.8 secs

     total energy              =  -12593.18435745 Ry
     estimated scf accuracy    <       0.00000005 Ry

     iteration # 52     ecut=    70.00 Ry     beta= 0.20
     Davidson diagonalization with overlap
     ethr =  6.07E-12,  avg # of iterations =  2.0

     negative rho (up, down):  2.473E-04 0.000E+00

     total cpu time spent up to now is     2094.9 secs

     total energy              =  -12593.18435745 Ry
     estimated scf accuracy    <       0.00000007 Ry

     iteration # 53     ecut=    70.00 Ry     beta= 0.20
     Davidson diagonalization with overlap
     ethr =  6.07E-12,  avg # of iterations =  1.0

     negative rho (up, down):  2.473E-04 0.000E+00

     total cpu time spent up to now is     2130.1 secs

     total energy              =  -12593.18435745 Ry
     estimated scf accuracy    <       0.00000003 Ry

     iteration # 54     ecut=    70.00 Ry     beta= 0.20
     Davidson diagonalization with overlap
     ethr =  3.20E-12,  avg # of iterations =  2.0

     negative rho (up, down):  2.473E-04 0.000E+00

     total cpu time spent up to now is     2169.9 secs

     total energy              =  -12593.18435745 Ry
     estimated scf accuracy    <       0.00000005 Ry

     iteration # 55     ecut=    70.00 Ry     beta= 0.20
     Davidson diagonalization with overlap
     ethr =  3.20E-12,  avg # of iterations =  1.0

     negative rho (up, down):  2.474E-04 0.000E+00

     total cpu time spent up to now is     2205.2 secs

     total energy              =  -12593.18435745 Ry
     estimated scf accuracy    <       0.00000003 Ry

     iteration # 56     ecut=    70.00 Ry     beta= 0.20
     Davidson diagonalization with overlap
     ethr =  3.20E-12,  avg # of iterations =  1.0

     negative rho (up, down):  2.474E-04 0.000E+00

     total cpu time spent up to now is     2240.3 secs

     End of self-consistent calculation

          k = 0.0000 0.0000 0.0000 (108303 PWs)   bands (ev):

   -67.2752 -67.2347 -67.2347 -67.2347 -67.2262 -67.2262 -67.2262 -67.2236
   -67.2006 -67.2006 -67.2006 -67.1959 -67.1959 -67.1959 -67.1914 -67.1914
   -67.1914 -67.1901 -67.1901 -67.1777 -67.1777 -67.1777 -67.1736 -67.1736
   -67.0231 -66.9938 -66.9938 -66.9937 -66.9868 -66.9868 -66.9868 -66.9700
   -66.9700 -66.9700 -66.9636 -66.9636 -66.9239 -66.9031 -66.9031 -66.9031
   -66.8706 -66.8706 -66.8706 -66.8596 -66.8596 -66.8596 -66.8545 -66.8545
   -39.0791 -39.0513 -39.0513 -39.0513 -38.9494 -38.9494 -38.9494 -38.9102
   -38.9102 -38.8941 -38.8940 -38.8940 -38.8695 -38.8377 -38.8377 -38.8377
   -38.8158 -38.8158 -38.8158 -38.7866 -38.7866 -38.7866 -38.7519 -38.7519
   -38.7468 -38.7468 -38.7468 -38.7390 -38.6646 -38.6547 -38.6466 -38.6466
   -38.6466 -38.6423 -38.6423 -38.6395 -38.6395 -38.6395 -38.6020 -38.6020
   -38.6020 -38.5853 -38.5853 -38.5853 -38.5605 -38.5408 -38.5408 -38.5407
   -38.5375 -38.5375 -38.5375 -38.5370 -38.5370 -38.5190 -38.5190 -38.5136
   -38.5136 -38.5136 -38.5057 -38.5057 -38.5057 -38.5040 -38.5040 -38.5040
   -38.4907 -38.4907 -38.4907 -38.4842 -38.4774 -38.4774 -38.4774 -38.4258
   -38.4258 -38.4258 -38.4189 -38.4189 -38.4189 -38.4155 -38.4155 -38.4125
   -38.3910 -38.3910 -38.3910 -38.3890 -38.3707 -38.3707 -38.3707 -38.3547
   -38.3547 -38.3345 -38.3344 -38.3344 -38.3303 -38.3287 -38.3287 -38.3287
   -38.3133 -38.3133 -38.3092 -38.3092 -38.3092 -38.2791 -38.2791 -38.2791
   -38.2448 -38.2448 -38.2371 -38.2371 -38.2371 -38.2220 -38.2220 -38.2220
   -38.2214 -38.2214 -38.2214 -38.2032 -38.1995 -38.1995 -38.1995 -38.1861
   -38.1861 -38.1752 -38.1752 -38.1752 -38.1414 -38.1414 -38.1413 -38.1403
   -38.1403 -38.1403 -38.1115 -38.1115 -38.1041 -38.0884 -38.0884 -38.0884
   -37.9759 -37.9759 -37.9759 -37.9504 -37.9504 -37.9504 -37.9321 -37.9321
   -12.7762 -12.3060 -12.0736 -12.0736 -12.0736 -11.9244 -11.9244 -11.9244
   -11.9005 -11.9005 -11.9005 -11.6172 -11.6172 -11.6172 -11.5417 -11.5080
   -11.5080 -11.5080 -11.2771 -11.2565  -8.9822  -8.9822  -8.9822  -8.9246
    -3.2763  -3.2763  -3.2763  -3.0617  -3.0346  -3.0346  -2.8402  -2.8402
    -2.8402  -2.8126  -2.8126  -2.8126  -2.7418  -2.6797  -2.6797  -2.6797
    -2.5931  -2.5931  -2.5931  -2.5115  -2.5115  -2.0333  -2.0333  -2.0333
    -1.8558  -1.8558  -1.8558  -1.7646  -1.7646  -1.7646  -1.7009  -1.7009
    -1.7009  -1.6191  -1.6118  -1.6118  -1.6118  -1.5591  -1.5591  -1.5001
    -1.5001  -1.5001  -1.3627  -1.3627  -1.2594  -1.1929  -1.1929  -1.1928
    -1.1750  -1.1750  -1.1276  -1.0989  -1.0989  -1.0989  -0.9598  -0.9598
    -0.9598  -0.7095  -0.7095  -0.7095   0.3779   0.9536   0.9536   0.9536
     1.1965   1.1965   1.1965   1.2705   1.2899   1.2899   1.3107   1.3107
     1.3107   1.3326   1.3326   1.3326   1.5051   1.5051   1.5051   1.7936
     1.7936   1.7936   1.9195   1.9196   1.9196   1.9482   2.0770   2.0770
     2.0770   2.1647   2.1647   2.1647   2.1794   2.1794   2.1794   2.2429
     2.2429   2.2429   2.2603   2.4223   2.4223   2.5276   2.5276   2.5276
     2.8836   2.8836   2.9173   3.0126   3.0126   3.0769   3.0769   3.0769
     3.0931   3.0931   3.0931   3.2227   3.2227   3.2227   3.2831   3.2831
     3.2832   3.3722   3.3980   3.3980   3.3980   3.4238   3.4238   3.4559
     3.4559   3.4559   3.4601   3.5554   3.5554   3.5554   3.7277   3.7277
     3.7655   3.8714   3.8714   3.8714   3.8877   3.8877   4.0257   4.0381
     4.0381   4.0381   4.1011   4.1011   4.1012   4.1465   4.1465   4.1465
     4.1637   4.2265   4.2265   4.2265   4.2775   4.2775   4.3482   4.4351
     4.4351   4.4351   4.4806   4.5163   4.5163   4.5163   4.5663   4.5663
     4.6220   4.6220   4.6220   4.6907   4.6907   4.6907   4.7464   4.7464
     4.7566   4.8657   4.8657   4.8657   4.9837   4.9837   4.9837   5.1221
     5.1221   5.1221   5.2330   5.2330   5.2834   5.2834   5.2834   5.2979
     5.2979   5.2979   5.4270   5.4270   5.4270   5.4415   5.4415   5.4415
     5.4594   5.4594   5.5018   5.5018   5.5018   5.5763   5.5953   5.5953
     5.5953   5.6011   5.6011   5.6011   5.6459   5.6459   5.7235   5.7235
     5.7236   5.7449   5.7449   5.7452   5.7452   5.7452   5.7975   5.7975
     5.7975   5.8584   5.8584   5.8584   5.9345   5.9345   5.9490   5.9490
     5.9490   5.9928   5.9928   6.0029   6.0029   6.0029   6.0498   6.0498
     6.0498   6.1008   6.1008   6.1008   6.2646   6.3005   6.3005   6.3005
     6.3635   6.3635   6.3635   6.4075   6.4076   6.4480   6.4481   6.4482
     6.4609   6.4610   6.4611

          k = 0.0000 0.2887 0.0000 (108355 PWs)   bands (ev):

   -67.2718 -67.2477 -67.2383 -67.2383 -67.2211 -67.2201 -67.2201 -67.2139
   -67.2045 -67.2033 -67.2033 -67.1993 -67.1983 -67.1983 -67.1928 -67.1920
   -67.1876 -67.1876 -67.1841 -67.1789 -67.1789 -67.1771 -67.1744 -67.1742
   -67.0205 -67.0028 -66.9960 -66.9960 -66.9828 -66.9828 -66.9786 -66.9717
   -66.9717 -66.9692 -66.9652 -66.9647 -66.9216 -66.9073 -66.9034 -66.9034
   -66.8691 -66.8691 -66.8671 -66.8607 -66.8607 -66.8589 -66.8561 -66.8553
   -39.0758 -39.0560 -39.0473 -39.0473 -38.9450 -38.9440 -38.9440 -38.9181
   -38.9087 -38.9008 -38.9008 -38.8984 -38.8712 -38.8562 -38.8408 -38.8408
   -38.8109 -38.8109 -38.8005 -38.7887 -38.7887 -38.7867 -38.7798 -38.7576
   -38.7409 -38.7409 -38.7392 -38.7178 -38.6573 -38.6573 -38.6523 -38.6481
   -38.6443 -38.6380 -38.6380 -38.6362 -38.6310 -38.6237 -38.6074 -38.6030
   -38.6030 -38.5937 -38.5878 -38.5878 -38.5625 -38.5570 -38.5425 -38.5424
   -38.5416 -38.5406 -38.5406 -38.5404 -38.5347 -38.5281 -38.5243 -38.5219
   -38.5219 -38.5205 -38.5093 -38.5093 -38.5088 -38.5011 -38.4914 -38.4914
   -38.4846 -38.4843 -38.4843 -38.4711 -38.4680 -38.4680 -38.4672 -38.4324
   -38.4306 -38.4306 -38.4296 -38.4281 -38.4179 -38.4179 -38.4175 -38.4039
   -38.3967 -38.3967 -38.3958 -38.3803 -38.3729 -38.3729 -38.3597 -38.3595
   -38.3478 -38.3381 -38.3381 -38.3362 -38.3307 -38.3307 -38.3236 -38.3191
   -38.3164 -38.3050 -38.3050 -38.3046 -38.3018 -38.2851 -38.2851 -38.2812
   -38.2497 -38.2453 -38.2431 -38.2350 -38.2349 -38.2318 -38.2203 -38.2202
   -38.2184 -38.2174 -38.2174 -38.2008 -38.1976 -38.1976 -38.1974 -38.1886
   -38.1869 -38.1777 -38.1777 -38.1737 -38.1477 -38.1438 -38.1438 -38.1349
   -38.1349 -38.1319 -38.1216 -38.1141 -38.1008 -38.0894 -38.0894 -38.0892
   -37.9734 -37.9734 -37.9730 -37.9508 -37.9508 -37.9467 -37.9409 -37.9341
   -12.7126 -12.2856 -12.2637 -12.1289 -12.1289 -11.9971 -11.9096 -11.9096
   -11.8349 -11.8349 -11.7554 -11.6085 -11.6085 -11.5607 -11.5406 -11.5406
   -11.5296 -11.4762 -11.3101 -11.2914  -8.9838  -8.9838  -8.9724  -8.9317
    -3.2438  -3.2438  -3.2033  -3.0916  -3.0207  -3.0085  -2.9804  -2.9804
    -2.9777  -2.8619  -2.8619  -2.7100  -2.6721  -2.6232  -2.6219  -2.6219
    -2.5626  -2.5100  -2.4783  -2.4783  -2.4328  -2.2313  -2.0417  -2.0417
    -1.9964  -1.9050  -1.9050  -1.8493  -1.7561  -1.7561  -1.7097  -1.6967
    -1.6654  -1.6654  -1.6416  -1.5963  -1.5963  -1.5833  -1.5278  -1.5278
    -1.5115  -1.3977  -1.3561  -1.3379  -1.2902  -1.2346  -1.1813  -1.1685
    -1.1685  -1.1129  -1.1081  -1.1081  -1.0789  -1.0512  -1.0002  -0.9282
    -0.9282  -0.7814  -0.7358  -0.7358   0.5009   0.9147   0.9467   0.9467
     1.1859   1.1859   1.1947   1.1981   1.2619   1.2811   1.2811   1.3007
     1.3619   1.4012   1.4012   1.4156   1.5169   1.5169   1.5608   1.8012
     1.8012   1.8455   1.8971   1.8971   1.9483   2.0024   2.0378   2.0378
     2.0626   2.1599   2.1600   2.1784   2.1906   2.1906   2.2518   2.2846
     2.2846   2.3048   2.3253   2.3538   2.4574   2.5387   2.5387   2.6007
     2.7508   2.8042   2.8679   2.9384   2.9384   2.9680   2.9742   3.0007
     3.1003   3.1003   3.1293   3.1352   3.1352   3.1786   3.2547   3.3364
     3.3365   3.3456   3.3778   3.4236   3.4393   3.4524   3.4524   3.4681
     3.5179   3.5179   3.5217   3.6039   3.7329   3.7581   3.7610   3.7610
     3.7795   3.7812   3.7904   3.8859   3.9133   3.9133   3.9821   3.9821
     4.0129   4.0408   4.0408   4.0465   4.0758   4.1014   4.1213   4.1213
     4.1347   4.2155   4.2331   4.2331   4.2373   4.2997   4.3103   4.3960
     4.4366   4.4366   4.4806   4.5108   4.5108   4.5258   4.5729   4.5849
     4.6074   4.6658   4.6771   4.6771   4.7138   4.7138   4.7410   4.8036
     4.8273   4.8806   4.8806   4.9236   4.9307   4.9769   4.9769   5.0359
     5.0646   5.0966   5.0966   5.1882   5.2069   5.2069   5.2078   5.2575
     5.2921   5.2921   5.2983   5.3134   5.3135   5.4113   5.4456   5.4456
     5.4889   5.4906   5.4996   5.4996   5.5006   5.5487   5.5487   5.5694
     5.5724   5.6263   5.6266   5.6266   5.6339   5.6842   5.6966   5.7041
     5.7132   5.7132   5.7583   5.7583   5.7593   5.7777   5.7848   5.7848
     5.7994   5.7994   5.8328   5.9172   5.9450   5.9450   5.9649   5.9903
     5.9903   5.9926   5.9981   6.0461   6.0537   6.0544   6.0544   6.1064
     6.1400   6.1400   6.1426   6.1903   6.2055   6.2055   6.2742   6.2742
     6.2902   6.2976   6.3887   6.3887   6.4157   6.4238   6.4415   6.4585
     6.4807   6.4808   6.5396

          k = 0.0000-0.5774 0.0000 (108310 PWs)   bands (ev):

   -67.2620 -67.2619 -67.2404 -67.2404 -67.2142 -67.2142 -67.2125 -67.2125
   -67.2089 -67.2089 -67.2010 -67.2010 -67.1997 -67.1997 -67.1959 -67.1959
   -67.1833 -67.1833 -67.1817 -67.1817 -67.1777 -67.1777 -67.1756 -67.1756
   -67.0132 -67.0132 -66.9975 -66.9975 -66.9778 -66.9778 -66.9752 -66.9752
   -66.9702 -66.9702 -66.9670 -66.9670 -66.9152 -66.9152 -66.9037 -66.9037
   -66.8669 -66.8669 -66.8626 -66.8626 -66.8608 -66.8608 -66.8571 -66.8571
   -39.0666 -39.0666 -39.0429 -39.0429 -38.9379 -38.9379 -38.9331 -38.9331
   -38.9081 -38.9081 -38.9046 -38.9046 -38.8699 -38.8699 -38.8429 -38.8429
   -38.8069 -38.8069 -38.7973 -38.7973 -38.7920 -38.7920 -38.7716 -38.7716
   -38.7337 -38.7337 -38.7216 -38.7216 -38.6667 -38.6667 -38.6436 -38.6436
   -38.6376 -38.6376 -38.6279 -38.6279 -38.6163 -38.6163 -38.6051 -38.6051
   -38.5995 -38.5995 -38.5906 -38.5906 -38.5777 -38.5777 -38.5448 -38.5448
   -38.5447 -38.5447 -38.5399 -38.5399 -38.5365 -38.5365 -38.5275 -38.5275
   -38.5206 -38.5206 -38.5129 -38.5129 -38.5111 -38.5111 -38.4875 -38.4875
   -38.4689 -38.4689 -38.4617 -38.4617 -38.4598 -38.4598 -38.4562 -38.4562
   -38.4414 -38.4414 -38.4387 -38.4387 -38.4102 -38.4102 -38.4081 -38.4081
   -38.4045 -38.4045 -38.3907 -38.3907 -38.3737 -38.3737 -38.3548 -38.3548
   -38.3415 -38.3415 -38.3355 -38.3355 -38.3326 -38.3326 -38.3207 -38.3207
   -38.3144 -38.3144 -38.2983 -38.2983 -38.2930 -38.2930 -38.2701 -38.2701
   -38.2592 -38.2592 -38.2454 -38.2454 -38.2332 -38.2332 -38.2180 -38.2180
   -38.2150 -38.2150 -38.2093 -38.2093 -38.1946 -38.1946 -38.1915 -38.1915
   -38.1804 -38.1804 -38.1796 -38.1796 -38.1452 -38.1452 -38.1412 -38.1412
   -38.1309 -38.1308 -38.1216 -38.1216 -38.0938 -38.0938 -38.0903 -38.0903
   -37.9710 -37.9710 -37.9598 -37.9598 -37.9512 -37.9512 -37.9397 -37.9397
   -12.5357 -12.5357 -12.1634 -12.1634 -12.1488 -12.1488 -11.9173 -11.9173
   -11.7473 -11.7473 -11.6222 -11.6222 -11.6081 -11.6081 -11.5853 -11.5853
   -11.4013 -11.4013 -11.3840 -11.3840  -8.9854  -8.9854  -8.9507  -8.9507
    -3.2066  -3.2066  -3.1162  -3.1162  -3.0495  -3.0495  -3.0456  -3.0456
    -2.9229  -2.9229  -2.8059  -2.8059  -2.6402  -2.6402  -2.5752  -2.5752
    -2.5202  -2.5202  -2.3936  -2.3936  -2.3108  -2.3108  -2.1172  -2.1172
    -1.9742  -1.9742  -1.9283  -1.9283  -1.8427  -1.8427  -1.7195  -1.7195
    -1.7117  -1.7117  -1.5896  -1.5896  -1.5389  -1.5389  -1.5219  -1.5219
    -1.4065  -1.4065  -1.3248  -1.3248  -1.3068  -1.3068  -1.1776  -1.1776
    -1.1304  -1.1304  -1.1115  -1.1115  -1.0085  -1.0085  -0.9461  -0.9461
    -0.8967  -0.8967  -0.7594  -0.7594   0.7473   0.7473   0.9345   0.9345
     1.1640   1.1640   1.1859   1.1859   1.2620   1.2620   1.2783   1.2783
     1.4204   1.4204   1.4300   1.4300   1.6563   1.6563   1.6626   1.6626
     1.8348   1.8349   1.8745   1.8746   1.9665   1.9665   2.0970   2.0970
     2.1203   2.1203   2.1527   2.1527   2.1917   2.1917   2.2054   2.2054
     2.3137   2.3137   2.4822   2.4822   2.5402   2.5402   2.5609   2.5609
     2.7560   2.7560   2.7762   2.7762   2.8456   2.8456   2.9425   2.9425
     3.0647   3.0647   3.1262   3.1262   3.1604   3.1604   3.2561   3.2561
     3.3615   3.3615   3.4124   3.4124   3.4773   3.4773   3.5536   3.5536
     3.6085   3.6085   3.6458   3.6458   3.6825   3.6825   3.7113   3.7113
     3.7457   3.7457   3.8708   3.8708   3.8887   3.8887   4.0207   4.0207
     4.0591   4.0591   4.0866   4.0866   4.0979   4.0980   4.1035   4.1035
     4.1823   4.1823   4.2081   4.2081   4.2175   4.2175   4.3497   4.3497
     4.3602   4.3602   4.4167   4.4167   4.4358   4.4358   4.5519   4.5519
     4.7286   4.7287   4.7309   4.7309   4.7379   4.7379   4.8030   4.8030
     4.8564   4.8564   4.8743   4.8743   4.9246   4.9246   5.0106   5.0107
     5.0811   5.0811   5.0945   5.0945   5.1772   5.1772   5.2065   5.2065
     5.2626   5.2626   5.3054   5.3054   5.3340   5.3340   5.3356   5.3356
     5.4462   5.4462   5.4841   5.4841   5.5042   5.5043   5.5257   5.5257
     5.5854   5.5854   5.6165   5.6165   5.6347   5.6347   5.6510   5.6510
     5.7202   5.7202   5.7418   5.7418   5.7824   5.7824   5.8203   5.8203
     5.8992   5.8992   5.9158   5.9158   5.9179   5.9179   5.9372   5.9372
     5.9513   5.9513   6.0840   6.0840   6.0842   6.0843   6.1275   6.1275
     6.1673   6.1673   6.1851   6.1851   6.2020   6.2020   6.2348   6.2348
     6.3582   6.3582   6.3598   6.3598   6.3980   6.3980   6.4521   6.4521
     6.5927   6.5929   6.6055

          k = 0.2500 0.1443 0.0000 (108355 PWs)   bands (ev):

   -67.2718 -67.2477 -67.2383 -67.2383 -67.2211 -67.2201 -67.2201 -67.2139
   -67.2045 -67.2033 -67.2033 -67.1993 -67.1983 -67.1983 -67.1928 -67.1920
   -67.1876 -67.1876 -67.1841 -67.1789 -67.1789 -67.1771 -67.1744 -67.1742
   -67.0205 -67.0028 -66.9960 -66.9960 -66.9828 -66.9828 -66.9786 -66.9717
   -66.9717 -66.9692 -66.9652 -66.9647 -66.9216 -66.9073 -66.9034 -66.9034
   -66.8691 -66.8691 -66.8671 -66.8607 -66.8607 -66.8589 -66.8561 -66.8553
   -39.0758 -39.0560 -39.0473 -39.0473 -38.9450 -38.9440 -38.9440 -38.9181
   -38.9087 -38.9008 -38.9008 -38.8984 -38.8712 -38.8562 -38.8408 -38.8408
   -38.8109 -38.8109 -38.8005 -38.7887 -38.7887 -38.7867 -38.7798 -38.7576
   -38.7409 -38.7409 -38.7392 -38.7178 -38.6573 -38.6573 -38.6523 -38.6481
   -38.6443 -38.6380 -38.6380 -38.6362 -38.6310 -38.6237 -38.6074 -38.6030
   -38.6030 -38.5937 -38.5878 -38.5878 -38.5625 -38.5570 -38.5425 -38.5424
   -38.5416 -38.5406 -38.5406 -38.5404 -38.5347 -38.5281 -38.5243 -38.5219
   -38.5219 -38.5205 -38.5093 -38.5093 -38.5088 -38.5011 -38.4914 -38.4914
   -38.4846 -38.4843 -38.4843 -38.4711 -38.4680 -38.4680 -38.4672 -38.4324
   -38.4306 -38.4306 -38.4296 -38.4281 -38.4179 -38.4179 -38.4175 -38.4039
   -38.3967 -38.3967 -38.3958 -38.3803 -38.3729 -38.3729 -38.3597 -38.3595
   -38.3478 -38.3381 -38.3381 -38.3362 -38.3307 -38.3307 -38.3236 -38.3191
   -38.3164 -38.3050 -38.3050 -38.3046 -38.3018 -38.2851 -38.2851 -38.2812
   -38.2497 -38.2453 -38.2431 -38.2349 -38.2349 -38.2318 -38.2203 -38.2202
   -38.2184 -38.2174 -38.2174 -38.2008 -38.1976 -38.1976 -38.1974 -38.1886
   -38.1869 -38.1777 -38.1777 -38.1737 -38.1477 -38.1438 -38.1438 -38.1349
   -38.1349 -38.1319 -38.1216 -38.1141 -38.1008 -38.0894 -38.0894 -38.0892
   -37.9734 -37.9734 -37.9730 -37.9508 -37.9508 -37.9467 -37.9409 -37.9341
   -12.7126 -12.2856 -12.2637 -12.1289 -12.1289 -11.9971 -11.9096 -11.9096
   -11.8349 -11.8349 -11.7554 -11.6085 -11.6085 -11.5607 -11.5406 -11.5406
   -11.5296 -11.4762 -11.3101 -11.2914  -8.9838  -8.9838  -8.9724  -8.9317
    -3.2438  -3.2438  -3.2033  -3.0916  -3.0207  -3.0085  -2.9804  -2.9804
    -2.9777  -2.8619  -2.8619  -2.7100  -2.6721  -2.6232  -2.6219  -2.6219
    -2.5626  -2.5100  -2.4783  -2.4783  -2.4328  -2.2313  -2.0417  -2.0417
    -1.9964  -1.9050  -1.9050  -1.8493  -1.7561  -1.7561  -1.7097  -1.6967
    -1.6654  -1.6654  -1.6416  -1.5963  -1.5963  -1.5833  -1.5278  -1.5278
    -1.5115  -1.3977  -1.3561  -1.3379  -1.2902  -1.2346  -1.1813  -1.1685
    -1.1685  -1.1129  -1.1081  -1.1081  -1.0789  -1.0512  -1.0002  -0.9282
    -0.9282  -0.7814  -0.7358  -0.7358   0.5009   0.9147   0.9467   0.9467
     1.1859   1.1859   1.1947   1.1981   1.2619   1.2811   1.2811   1.3007
     1.3619   1.4012   1.4012   1.4156   1.5169   1.5169   1.5608   1.8012
     1.8012   1.8455   1.8970   1.8971   1.9483   2.0024   2.0378   2.0378
     2.0626   2.1599   2.1600   2.1784   2.1906   2.1906   2.2518   2.2846
     2.2846   2.3048   2.3253   2.3538   2.4574   2.5387   2.5387   2.6007
     2.7508   2.8042   2.8679   2.9384   2.9384   2.9680   2.9742   3.0007
     3.1003   3.1003   3.1293   3.1352   3.1352   3.1786   3.2547   3.3365
     3.3365   3.3456   3.3778   3.4236   3.4393   3.4524   3.4524   3.4681
     3.5179   3.5179   3.5217   3.6039   3.7329   3.7581   3.7610   3.7610
     3.7795   3.7812   3.7904   3.8859   3.9133   3.9133   3.9821   3.9821
     4.0129   4.0408   4.0408   4.0465   4.0758   4.1014   4.1213   4.1213
     4.1347   4.2155   4.2331   4.2331   4.2373   4.2997   4.3103   4.3960
     4.4366   4.4366   4.4806   4.5108   4.5108   4.5258   4.5729   4.5849
     4.6074   4.6658   4.6771   4.6771   4.7138   4.7138   4.7410   4.8036
     4.8273   4.8806   4.8806   4.9236   4.9307   4.9769   4.9769   5.0359
     5.0646   5.0966   5.0966   5.1882   5.2069   5.2069   5.2078   5.2575
     5.2921   5.2921   5.2983   5.3134   5.3134   5.4113   5.4456   5.4456
     5.4889   5.4906   5.4996   5.4996   5.5006   5.5487   5.5487   5.5694
     5.5724   5.6263   5.6266   5.6266   5.6339   5.6842   5.6966   5.7041
     5.7132   5.7132   5.7583   5.7583   5.7593   5.7777   5.7848   5.7848
     5.7994   5.7994   5.8328   5.9172   5.9450   5.9450   5.9649   5.9903
     5.9904   5.9926   5.9981   6.0461   6.0537   6.0544   6.0544   6.1064
     6.1400   6.1401   6.1427   6.1903   6.2055   6.2055   6.2742   6.2743
     6.2902   6.2976   6.3888   6.3889   6.4158   6.4239   6.4416   6.4592
     6.4809   6.4813   6.5406

          k = 0.2500 0.4330 0.0000 (108308 PWs)   bands (ev):

   -67.2651 -67.2531 -67.2531 -67.2294 -67.2212 -67.2164 -67.2118 -67.2082
   -67.2082 -67.2066 -67.2066 -67.2006 -67.2006 -67.1972 -67.1959 -67.1925
   -67.1884 -67.1831 -67.1803 -67.1803 -67.1776 -67.1776 -67.1760 -67.1757
   -67.0156 -67.0067 -67.0067 -66.9900 -66.9834 -66.9772 -66.9739 -66.9739
   -66.9699 -66.9699 -66.9679 -66.9670 -66.9172 -66.9100 -66.9099 -66.9007
   -66.8683 -66.8643 -66.8640 -66.8640 -66.8592 -66.8592 -66.8590 -66.8569
   -39.0691 -39.0573 -39.0573 -39.0352 -38.9390 -38.9390 -38.9335 -38.9288
   -38.9144 -38.9059 -38.9032 -38.9032 -38.8709 -38.8617 -38.8617 -38.8221
   -38.8160 -38.8041 -38.8041 -38.7987 -38.7971 -38.7794 -38.7794 -38.7653
   -38.7298 -38.7298 -38.7286 -38.7175 -38.6933 -38.6460 -38.6460 -38.6456
   -38.6377 -38.6334 -38.6239 -38.6215 -38.6215 -38.6146 -38.6146 -38.6057
   -38.5993 -38.5921 -38.5921 -38.5915 -38.5740 -38.5682 -38.5682 -38.5464
   -38.5464 -38.5421 -38.5385 -38.5375 -38.5313 -38.5303 -38.5274 -38.5274
   -38.5244 -38.5189 -38.5159 -38.5104 -38.5104 -38.5076 -38.5076 -38.4737
   -38.4698 -38.4681 -38.4681 -38.4593 -38.4593 -38.4579 -38.4574 -38.4472
   -38.4435 -38.4415 -38.4415 -38.4407 -38.4141 -38.4094 -38.4094 -38.4004
   -38.3996 -38.3984 -38.3984 -38.3940 -38.3879 -38.3582 -38.3582 -38.3568
   -38.3424 -38.3419 -38.3361 -38.3361 -38.3360 -38.3268 -38.3268 -38.3253
   -38.3143 -38.3023 -38.2996 -38.2996 -38.2937 -38.2798 -38.2798 -38.2755
   -38.2599 -38.2479 -38.2479 -38.2439 -38.2339 -38.2339 -38.2252 -38.2176
   -38.2176 -38.2124 -38.2107 -38.2073 -38.1955 -38.1927 -38.1927 -38.1885
   -38.1850 -38.1831 -38.1749 -38.1749 -38.1497 -38.1497 -38.1381 -38.1371
   -38.1355 -38.1260 -38.1260 -38.1183 -38.0958 -38.0912 -38.0906 -38.0906
   -37.9691 -37.9691 -37.9672 -37.9569 -37.9546 -37.9443 -37.9443 -37.9378
   -12.5924 -12.3791 -12.3791 -12.1851 -12.0504 -12.0504 -12.0020 -11.8340
   -11.8088 -11.6979 -11.6790 -11.6790 -11.6632 -11.5982 -11.4853 -11.4853
   -11.4638 -11.4638 -11.3736 -11.3563  -8.9941  -8.9666  -8.9666  -8.9450
    -3.2573  -3.1602  -3.1602  -3.1438  -3.0314  -3.0314  -2.9893  -2.9550
    -2.9032  -2.8893  -2.8661  -2.8661  -2.8204  -2.6300  -2.4951  -2.4951
    -2.4824  -2.4560  -2.4030  -2.4030  -2.3592  -2.3592  -2.2318  -2.0502
    -2.0502  -1.9687  -1.9406  -1.8545  -1.8004  -1.8004  -1.7230  -1.6988
    -1.6795  -1.6457  -1.6414  -1.6414  -1.6402  -1.5808  -1.4624  -1.4624
    -1.4170  -1.4170  -1.3947  -1.3494  -1.2357  -1.2100  -1.2100  -1.1572
    -1.1442  -1.1352  -1.1115  -1.0837  -1.0837  -1.0287  -1.0287  -0.9365
    -0.8379  -0.8273  -0.8273  -0.7310   0.6799   0.8658   0.8658   0.9672
     1.1505   1.1672   1.1672   1.1705   1.2139   1.2953   1.2953   1.3226
     1.3883   1.4078   1.4078   1.4633   1.5830   1.7015   1.7015   1.7903
     1.7910   1.8549   1.8549   1.9127   1.9206   1.9827   1.9827   2.0141
     2.0879   2.0934   2.1287   2.1288   2.1805   2.2297   2.2970   2.3221
     2.3221   2.4086   2.4087   2.5263   2.5263   2.5315   2.5599   2.5664
     2.6646   2.6680   2.6680   2.7354   2.9165   2.9802   3.0250   3.0250
     3.0723   3.0723   3.0782   3.1648   3.1709   3.1709   3.1870   3.2944
     3.3151   3.3151   3.3891   3.4438   3.4599   3.4908   3.4908   3.5264
     3.5264   3.5835   3.6049   3.6234   3.7673   3.7673   3.7868   3.7996
     3.8065   3.8171   3.8171   3.8533   3.8801   3.9289   3.9389   3.9742
     3.9742   4.0338   4.0338   4.0672   4.0996   4.0996   4.1408   4.1435
     4.1815   4.1815   4.2008   4.2055   4.3001   4.3001   4.3229   4.3236
     4.3436   4.3436   4.3472   4.4116   4.4658   4.5987   4.5987   4.6185
     4.6249   4.6332   4.6332   4.6443   4.6918   4.7072   4.7824   4.7825
     4.8613   4.8613   4.9013   4.9013   4.9145   5.0123   5.0308   5.0530
     5.0530   5.0860   5.1171   5.1626   5.1732   5.1732   5.1844   5.2211
     5.2410   5.2549   5.2549   5.3249   5.3414   5.3414   5.3677   5.4506
     5.4687   5.4687   5.4730   5.4757   5.5138   5.5138   5.5160   5.5187
     5.5350   5.6069   5.6069   5.6137   5.6143   5.6316   5.6466   5.6662
     5.6662   5.7050   5.7173   5.7735   5.7735   5.7745   5.8100   5.8110
     5.8342   5.8342   5.8459   5.9180   5.9193   5.9193   5.9543   5.9543
     5.9766   6.0082   6.0331   6.0332   6.0799   6.0799   6.1104   6.1141
     6.1699   6.2018   6.2019   6.2394   6.2394   6.2403   6.3037   6.3037
     6.3329   6.3583   6.3919   6.4122   6.4124   6.4228   6.4549   6.4665
     6.4671   6.5363   6.5923

          k = 0.2500-0.4330 0.0000 (108308 PWs)   bands (ev):

   -67.2651 -67.2531 -67.2531 -67.2294 -67.2212 -67.2164 -67.2118 -67.2082
   -67.2082 -67.2066 -67.2066 -67.2006 -67.2006 -67.1972 -67.1959 -67.1925
   -67.1884 -67.1831 -67.1803 -67.1803 -67.1776 -67.1776 -67.1760 -67.1757
   -67.0156 -67.0067 -67.0067 -66.9900 -66.9834 -66.9772 -66.9739 -66.9739
   -66.9699 -66.9699 -66.9679 -66.9670 -66.9172 -66.9100 -66.9099 -66.9007
   -66.8683 -66.8643 -66.8640 -66.8640 -66.8592 -66.8592 -66.8590 -66.8569
   -39.0691 -39.0573 -39.0573 -39.0352 -38.9390 -38.9390 -38.9335 -38.9288
   -38.9144 -38.9059 -38.9032 -38.9032 -38.8709 -38.8617 -38.8617 -38.8221
   -38.8160 -38.8041 -38.8041 -38.7987 -38.7971 -38.7794 -38.7794 -38.7653
   -38.7298 -38.7298 -38.7286 -38.7175 -38.6933 -38.6460 -38.6460 -38.6456
   -38.6377 -38.6334 -38.6239 -38.6215 -38.6215 -38.6146 -38.6146 -38.6057
   -38.5993 -38.5921 -38.5921 -38.5915 -38.5740 -38.5682 -38.5682 -38.5464
   -38.5464 -38.5421 -38.5385 -38.5375 -38.5313 -38.5303 -38.5274 -38.5274
   -38.5244 -38.5189 -38.5159 -38.5104 -38.5104 -38.5076 -38.5076 -38.4737
   -38.4698 -38.4681 -38.4681 -38.4593 -38.4593 -38.4579 -38.4574 -38.4472
   -38.4435 -38.4415 -38.4415 -38.4407 -38.4141 -38.4094 -38.4094 -38.4004
   -38.3996 -38.3984 -38.3984 -38.3940 -38.3879 -38.3582 -38.3582 -38.3568
   -38.3424 -38.3419 -38.3361 -38.3361 -38.3360 -38.3268 -38.3268 -38.3253
   -38.3143 -38.3023 -38.2996 -38.2996 -38.2937 -38.2798 -38.2798 -38.2755
   -38.2599 -38.2479 -38.2479 -38.2439 -38.2339 -38.2339 -38.2252 -38.2176
   -38.2176 -38.2124 -38.2107 -38.2073 -38.1955 -38.1927 -38.1927 -38.1885
   -38.1850 -38.1831 -38.1749 -38.1749 -38.1497 -38.1497 -38.1381 -38.1371
   -38.1355 -38.1260 -38.1260 -38.1183 -38.0958 -38.0912 -38.0906 -38.0906
   -37.9691 -37.9691 -37.9672 -37.9569 -37.9546 -37.9443 -37.9443 -37.9378
   -12.5924 -12.3791 -12.3791 -12.1851 -12.0504 -12.0504 -12.0020 -11.8340
   -11.8088 -11.6979 -11.6790 -11.6790 -11.6632 -11.5982 -11.4853 -11.4853
   -11.4638 -11.4638 -11.3736 -11.3563  -8.9941  -8.9666  -8.9666  -8.9450
    -3.2573  -3.1602  -3.1602  -3.1438  -3.0314  -3.0314  -2.9893  -2.9550
    -2.9032  -2.8893  -2.8661  -2.8661  -2.8204  -2.6300  -2.4951  -2.4951
    -2.4824  -2.4560  -2.4030  -2.4030  -2.3592  -2.3592  -2.2318  -2.0502
    -2.0502  -1.9687  -1.9406  -1.8545  -1.8004  -1.8004  -1.7230  -1.6988
    -1.6795  -1.6457  -1.6414  -1.6414  -1.6402  -1.5808  -1.4624  -1.4624
    -1.4170  -1.4170  -1.3947  -1.3494  -1.2357  -1.2100  -1.2100  -1.1572
    -1.1442  -1.1352  -1.1115  -1.0837  -1.0837  -1.0287  -1.0287  -0.9365
    -0.8379  -0.8273  -0.8273  -0.7310   0.6799   0.8658   0.8658   0.9672
     1.1505   1.1672   1.1672   1.1705   1.2139   1.2953   1.2953   1.3226
     1.3883   1.4078   1.4078   1.4633   1.5830   1.7015   1.7015   1.7903
     1.7910   1.8549   1.8549   1.9127   1.9206   1.9827   1.9827   2.0141
     2.0879   2.0934   2.1287   2.1288   2.1805   2.2297   2.2970   2.3221
     2.3221   2.4086   2.4087   2.5263   2.5263   2.5315   2.5599   2.5664
     2.6646   2.6680   2.6680   2.7354   2.9165   2.9802   3.0250   3.0250
     3.0723   3.0723   3.0782   3.1648   3.1709   3.1709   3.1870   3.2944
     3.3151   3.3151   3.3891   3.4438   3.4599   3.4908   3.4908   3.5264
     3.5264   3.5835   3.6049   3.6234   3.7673   3.7673   3.7868   3.7996
     3.8065   3.8171   3.8171   3.8533   3.8801   3.9289   3.9389   3.9742
     3.9742   4.0338   4.0338   4.0672   4.0996   4.0996   4.1408   4.1435
     4.1815   4.1815   4.2008   4.2055   4.3001   4.3001   4.3228   4.3236
     4.3436   4.3436   4.3472   4.4116   4.4658   4.5987   4.5987   4.6185
     4.6249   4.6332   4.6332   4.6443   4.6918   4.7072   4.7824   4.7825
     4.8613   4.8613   4.9013   4.9013   4.9145   5.0123   5.0308   5.0530
     5.0530   5.0860   5.1171   5.1626   5.1732   5.1732   5.1844   5.2211
     5.2410   5.2549   5.2549   5.3249   5.3414   5.3414   5.3677   5.4506
     5.4686   5.4687   5.4730   5.4757   5.5138   5.5138   5.5160   5.5187
     5.5350   5.6069   5.6069   5.6137   5.6143   5.6316   5.6466   5.6662
     5.6662   5.7050   5.7173   5.7735   5.7735   5.7745   5.8100   5.8110
     5.8342   5.8342   5.8459   5.9180   5.9193   5.9193   5.9543   5.9543
     5.9766   6.0082   6.0331   6.0332   6.0799   6.0799   6.1103   6.1141
     6.1699   6.2018   6.2018   6.2394   6.2394   6.2403   6.3037   6.3037
     6.3329   6.3583   6.3919   6.4121   6.4122   6.4227   6.4548   6.4662
     6.4664   6.5364   6.5894

          k = 0.2500-0.1443 0.0000 (108355 PWs)   bands (ev):

   -67.2718 -67.2477 -67.2383 -67.2383 -67.2211 -67.2201 -67.2201 -67.2139
   -67.2045 -67.2033 -67.2033 -67.1993 -67.1983 -67.1983 -67.1928 -67.1920
   -67.1876 -67.1876 -67.1841 -67.1789 -67.1789 -67.1771 -67.1744 -67.1742
   -67.0205 -67.0028 -66.9960 -66.9960 -66.9828 -66.9828 -66.9786 -66.9717
   -66.9717 -66.9692 -66.9652 -66.9647 -66.9216 -66.9073 -66.9034 -66.9034
   -66.8691 -66.8691 -66.8671 -66.8607 -66.8607 -66.8589 -66.8561 -66.8553
   -39.0758 -39.0560 -39.0473 -39.0473 -38.9450 -38.9440 -38.9440 -38.9181
   -38.9087 -38.9008 -38.9008 -38.8984 -38.8712 -38.8562 -38.8408 -38.8408
   -38.8109 -38.8109 -38.8005 -38.7887 -38.7887 -38.7868 -38.7798 -38.7576
   -38.7409 -38.7409 -38.7392 -38.7178 -38.6573 -38.6573 -38.6523 -38.6481
   -38.6443 -38.6380 -38.6380 -38.6362 -38.6310 -38.6237 -38.6074 -38.6030
   -38.6030 -38.5937 -38.5878 -38.5878 -38.5625 -38.5570 -38.5425 -38.5424
   -38.5416 -38.5406 -38.5406 -38.5404 -38.5347 -38.5281 -38.5243 -38.5219
   -38.5219 -38.5205 -38.5093 -38.5093 -38.5088 -38.5011 -38.4914 -38.4914
   -38.4846 -38.4843 -38.4843 -38.4711 -38.4680 -38.4680 -38.4672 -38.4324
   -38.4306 -38.4306 -38.4296 -38.4281 -38.4179 -38.4179 -38.4175 -38.4039
   -38.3967 -38.3967 -38.3958 -38.3803 -38.3729 -38.3729 -38.3597 -38.3595
   -38.3478 -38.3381 -38.3381 -38.3362 -38.3307 -38.3307 -38.3236 -38.3191
   -38.3164 -38.3050 -38.3050 -38.3046 -38.3018 -38.2851 -38.2851 -38.2812
   -38.2497 -38.2453 -38.2431 -38.2350 -38.2349 -38.2318 -38.2203 -38.2202
   -38.2184 -38.2174 -38.2174 -38.2008 -38.1976 -38.1976 -38.1974 -38.1887
   -38.1869 -38.1777 -38.1777 -38.1737 -38.1477 -38.1438 -38.1438 -38.1349
   -38.1349 -38.1319 -38.1216 -38.1141 -38.1008 -38.0894 -38.0894 -38.0892
   -37.9735 -37.9734 -37.9730 -37.9508 -37.9508 -37.9467 -37.9409 -37.9341
   -12.7126 -12.2856 -12.2637 -12.1289 -12.1289 -11.9971 -11.9096 -11.9096
   -11.8349 -11.8349 -11.7554 -11.6085 -11.6085 -11.5607 -11.5406 -11.5406
   -11.5296 -11.4762 -11.3101 -11.2914  -8.9838  -8.9838  -8.9724  -8.9317
    -3.2438  -3.2438  -3.2033  -3.0916  -3.0207  -3.0085  -2.9804  -2.9804
    -2.9777  -2.8619  -2.8619  -2.7100  -2.6721  -2.6232  -2.6219  -2.6219
    -2.5626  -2.5100  -2.4783  -2.4783  -2.4328  -2.2313  -2.0417  -2.0417
    -1.9964  -1.9050  -1.9050  -1.8493  -1.7561  -1.7561  -1.7097  -1.6967
    -1.6654  -1.6654  -1.6416  -1.5963  -1.5963  -1.5833  -1.5278  -1.5278
    -1.5115  -1.3977  -1.3561  -1.3379  -1.2902  -1.2346  -1.1813  -1.1685
    -1.1685  -1.1129  -1.1081  -1.1081  -1.0789  -1.0512  -1.0002  -0.9282
    -0.9282  -0.7814  -0.7358  -0.7358   0.5009   0.9147   0.9467   0.9467
     1.1859   1.1859   1.1947   1.1981   1.2619   1.2811   1.2811   1.3007
     1.3619   1.4012   1.4012   1.4156   1.5169   1.5169   1.5608   1.8012
     1.8012   1.8455   1.8971   1.8971   1.9483   2.0024   2.0378   2.0378
     2.0626   2.1599   2.1600   2.1784   2.1906   2.1906   2.2518   2.2846
     2.2846   2.3048   2.3253   2.3538   2.4574   2.5387   2.5387   2.6007
     2.7508   2.8042   2.8679   2.9384   2.9384   2.9680   2.9742   3.0007
     3.1003   3.1003   3.1293   3.1352   3.1352   3.1786   3.2547   3.3365
     3.3365   3.3456   3.3778   3.4236   3.4393   3.4524   3.4524   3.4681
     3.5179   3.5179   3.5217   3.6039   3.7329   3.7581   3.7610   3.7610
     3.7795   3.7812   3.7904   3.8859   3.9133   3.9133   3.9821   3.9821
     4.0129   4.0408   4.0408   4.0465   4.0758   4.1014   4.1213   4.1213
     4.1347   4.2155   4.2331   4.2331   4.2373   4.2997   4.3103   4.3960
     4.4366   4.4366   4.4806   4.5108   4.5108   4.5258   4.5729   4.5849
     4.6074   4.6658   4.6771   4.6771   4.7138   4.7138   4.7410   4.8036
     4.8273   4.8806   4.8806   4.9236   4.9307   4.9769   4.9769   5.0359
     5.0646   5.0966   5.0966   5.1882   5.2069   5.2069   5.2078   5.2575
     5.2921   5.2921   5.2983   5.3134   5.3134   5.4113   5.4456   5.4456
     5.4889   5.4906   5.4995   5.4996   5.5006   5.5487   5.5487   5.5694
     5.5724   5.6263   5.6266   5.6266   5.6339   5.6842   5.6966   5.7041
     5.7132   5.7132   5.7583   5.7583   5.7593   5.7777   5.7848   5.7848
     5.7994   5.7994   5.8328   5.9172   5.9450   5.9450   5.9649   5.9903
     5.9903   5.9926   5.9981   6.0461   6.0537   6.0544   6.0544   6.1064
     6.1400   6.1401   6.1427   6.1903   6.2055   6.2055   6.2742   6.2742
     6.2902   6.2976   6.3887   6.3888   6.4157   6.4238   6.4415   6.4586
     6.4807   6.4810   6.5397

          k =-0.5000-0.2887 0.0000 (108310 PWs)   bands (ev):

   -67.2620 -67.2619 -67.2404 -67.2404 -67.2142 -67.2142 -67.2125 -67.2125
   -67.2089 -67.2089 -67.2010 -67.2010 -67.1997 -67.1997 -67.1959 -67.1959
   -67.1833 -67.1833 -67.1817 -67.1817 -67.1777 -67.1777 -67.1756 -67.1756
   -67.0132 -67.0132 -66.9975 -66.9975 -66.9778 -66.9778 -66.9752 -66.9752
   -66.9702 -66.9702 -66.9670 -66.9670 -66.9152 -66.9152 -66.9037 -66.9037
   -66.8670 -66.8669 -66.8626 -66.8626 -66.8608 -66.8608 -66.8571 -66.8571
   -39.0666 -39.0666 -39.0429 -39.0429 -38.9379 -38.9379 -38.9331 -38.9331
   -38.9081 -38.9081 -38.9046 -38.9046 -38.8699 -38.8699 -38.8429 -38.8429
   -38.8069 -38.8069 -38.7973 -38.7973 -38.7920 -38.7920 -38.7716 -38.7716
   -38.7337 -38.7337 -38.7216 -38.7216 -38.6667 -38.6667 -38.6436 -38.6436
   -38.6376 -38.6376 -38.6279 -38.6279 -38.6163 -38.6163 -38.6051 -38.6051
   -38.5995 -38.5995 -38.5906 -38.5906 -38.5777 -38.5777 -38.5448 -38.5448
   -38.5447 -38.5447 -38.5399 -38.5399 -38.5365 -38.5365 -38.5275 -38.5275
   -38.5206 -38.5206 -38.5129 -38.5129 -38.5111 -38.5111 -38.4875 -38.4875
   -38.4689 -38.4689 -38.4617 -38.4617 -38.4598 -38.4598 -38.4562 -38.4562
   -38.4414 -38.4414 -38.4387 -38.4387 -38.4102 -38.4102 -38.4081 -38.4081
   -38.4045 -38.4045 -38.3907 -38.3907 -38.3737 -38.3737 -38.3548 -38.3548
   -38.3415 -38.3415 -38.3355 -38.3355 -38.3326 -38.3326 -38.3207 -38.3207
   -38.3144 -38.3144 -38.2983 -38.2983 -38.2930 -38.2930 -38.2701 -38.2701
   -38.2592 -38.2592 -38.2454 -38.2454 -38.2332 -38.2332 -38.2180 -38.2180
   -38.2150 -38.2150 -38.2093 -38.2092 -38.1946 -38.1946 -38.1915 -38.1915
   -38.1804 -38.1804 -38.1796 -38.1796 -38.1452 -38.1452 -38.1412 -38.1412
   -38.1308 -38.1308 -38.1216 -38.1216 -38.0938 -38.0938 -38.0903 -38.0903
   -37.9710 -37.9710 -37.9598 -37.9598 -37.9512 -37.9512 -37.9397 -37.9396
   -12.5357 -12.5357 -12.1634 -12.1634 -12.1488 -12.1488 -11.9173 -11.9173
   -11.7473 -11.7473 -11.6222 -11.6222 -11.6081 -11.6081 -11.5853 -11.5853
   -11.4013 -11.4013 -11.3840 -11.3840  -8.9854  -8.9854  -8.9507  -8.9507
    -3.2066  -3.2066  -3.1162  -3.1162  -3.0495  -3.0495  -3.0456  -3.0456
    -2.9229  -2.9229  -2.8059  -2.8059  -2.6402  -2.6402  -2.5752  -2.5752
    -2.5202  -2.5202  -2.3936  -2.3936  -2.3108  -2.3108  -2.1172  -2.1172
    -1.9742  -1.9742  -1.9283  -1.9283  -1.8427  -1.8427  -1.7195  -1.7195
    -1.7117  -1.7117  -1.5896  -1.5896  -1.5389  -1.5389  -1.5219  -1.5219
    -1.4065  -1.4065  -1.3248  -1.3248  -1.3068  -1.3068  -1.1776  -1.1776
    -1.1304  -1.1304  -1.1115  -1.1114  -1.0085  -1.0085  -0.9461  -0.9461
    -0.8967  -0.8967  -0.7594  -0.7594   0.7473   0.7473   0.9345   0.9345
     1.1640   1.1640   1.1859   1.1859   1.2620   1.2620   1.2783   1.2783
     1.4204   1.4204   1.4300   1.4300   1.6563   1.6563   1.6626   1.6626
     1.8348   1.8349   1.8745   1.8746   1.9665   1.9665   2.0970   2.0970
     2.1203   2.1203   2.1527   2.1527   2.1917   2.1917   2.2054   2.2054
     2.3137   2.3137   2.4822   2.4822   2.5402   2.5402   2.5609   2.5609
     2.7560   2.7561   2.7762   2.7762   2.8456   2.8456   2.9425   2.9425
     3.0647   3.0647   3.1262   3.1262   3.1604   3.1604   3.2561   3.2561
     3.3615   3.3615   3.4124   3.4124   3.4773   3.4773   3.5536   3.5536
     3.6085   3.6085   3.6458   3.6458   3.6825   3.6825   3.7113   3.7113
     3.7457   3.7457   3.8708   3.8708   3.8887   3.8887   4.0207   4.0207
     4.0591   4.0591   4.0866   4.0866   4.0979   4.0980   4.1035   4.1035
     4.1823   4.1823   4.2081   4.2081   4.2175   4.2175   4.3497   4.3497
     4.3602   4.3602   4.4167   4.4167   4.4358   4.4358   4.5519   4.5519
     4.7286   4.7287   4.7309   4.7309   4.7379   4.7379   4.8030   4.8030
     4.8564   4.8564   4.8743   4.8743   4.9246   4.9246   5.0106   5.0107
     5.0811   5.0811   5.0945   5.0945   5.1772   5.1772   5.2065   5.2065
     5.2626   5.2626   5.3054   5.3054   5.3340   5.3340   5.3356   5.3356
     5.4462   5.4462   5.4841   5.4841   5.5042   5.5043   5.5257   5.5257
     5.5854   5.5854   5.6165   5.6165   5.6347   5.6347   5.6510   5.6510
     5.7202   5.7202   5.7418   5.7418   5.7824   5.7824   5.8203   5.8203
     5.8992   5.8992   5.9158   5.9158   5.9179   5.9179   5.9372   5.9372
     5.9513   5.9513   6.0840   6.0840   6.0843   6.0843   6.1275   6.1275
     6.1673   6.1673   6.1851   6.1851   6.2020   6.2020   6.2348   6.2348
     6.3582   6.3582   6.3598   6.3599   6.3980   6.3981   6.4521   6.4522
     6.5940   6.6061   6.6090

          k =-0.5000 0.0000 0.0000 (108308 PWs)   bands (ev):

   -67.2651 -67.2531 -67.2531 -67.2294 -67.2212 -67.2164 -67.2118 -67.2082
   -67.2082 -67.2066 -67.2066 -67.2006 -67.2006 -67.1972 -67.1959 -67.1925
   -67.1884 -67.1831 -67.1803 -67.1803 -67.1776 -67.1776 -67.1760 -67.1757
   -67.0156 -67.0067 -67.0067 -66.9900 -66.9834 -66.9772 -66.9739 -66.9739
   -66.9699 -66.9699 -66.9679 -66.9670 -66.9172 -66.9100 -66.9100 -66.9007
   -66.8683 -66.8643 -66.8640 -66.8640 -66.8592 -66.8592 -66.8590 -66.8569
   -39.0691 -39.0573 -39.0573 -39.0352 -38.9390 -38.9390 -38.9335 -38.9288
   -38.9144 -38.9059 -38.9032 -38.9032 -38.8709 -38.8617 -38.8617 -38.8221
   -38.8160 -38.8041 -38.8041 -38.7987 -38.7971 -38.7794 -38.7794 -38.7653
   -38.7298 -38.7298 -38.7286 -38.7175 -38.6933 -38.6460 -38.6460 -38.6456
   -38.6377 -38.6334 -38.6239 -38.6215 -38.6215 -38.6146 -38.6146 -38.6057
   -38.5993 -38.5921 -38.5921 -38.5915 -38.5740 -38.5682 -38.5682 -38.5464
   -38.5464 -38.5421 -38.5385 -38.5375 -38.5313 -38.5303 -38.5274 -38.5274
   -38.5244 -38.5189 -38.5159 -38.5104 -38.5104 -38.5076 -38.5076 -38.4737
   -38.4698 -38.4681 -38.4681 -38.4593 -38.4593 -38.4579 -38.4574 -38.4472
   -38.4435 -38.4415 -38.4415 -38.4407 -38.4141 -38.4094 -38.4094 -38.4004
   -38.3996 -38.3984 -38.3984 -38.3940 -38.3879 -38.3582 -38.3582 -38.3568
   -38.3424 -38.3419 -38.3361 -38.3361 -38.3360 -38.3268 -38.3268 -38.3253
   -38.3143 -38.3023 -38.2996 -38.2996 -38.2937 -38.2798 -38.2798 -38.2755
   -38.2599 -38.2479 -38.2479 -38.2439 -38.2339 -38.2339 -38.2252 -38.2176
   -38.2176 -38.2124 -38.2107 -38.2073 -38.1955 -38.1927 -38.1927 -38.1885
   -38.1850 -38.1831 -38.1749 -38.1749 -38.1497 -38.1497 -38.1381 -38.1371
   -38.1355 -38.1260 -38.1260 -38.1183 -38.0958 -38.0912 -38.0906 -38.0906
   -37.9691 -37.9691 -37.9672 -37.9569 -37.9546 -37.9443 -37.9443 -37.9378
   -12.5924 -12.3791 -12.3791 -12.1851 -12.0504 -12.0504 -12.0020 -11.8340
   -11.8088 -11.6979 -11.6790 -11.6790 -11.6632 -11.5982 -11.4853 -11.4853
   -11.4638 -11.4638 -11.3736 -11.3563  -8.9941  -8.9666  -8.9666  -8.9450
    -3.2573  -3.1602  -3.1602  -3.1438  -3.0314  -3.0314  -2.9893  -2.9550
    -2.9032  -2.8893  -2.8661  -2.8661  -2.8204  -2.6300  -2.4951  -2.4951
    -2.4824  -2.4560  -2.4030  -2.4030  -2.3592  -2.3592  -2.2318  -2.0502
    -2.0502  -1.9687  -1.9406  -1.8545  -1.8004  -1.8004  -1.7230  -1.6988
    -1.6795  -1.6457  -1.6414  -1.6414  -1.6402  -1.5808  -1.4624  -1.4624
    -1.4170  -1.4170  -1.3947  -1.3494  -1.2357  -1.2100  -1.2100  -1.1572
    -1.1442  -1.1352  -1.1115  -1.0837  -1.0837  -1.0287  -1.0287  -0.9365
    -0.8379  -0.8273  -0.8273  -0.7310   0.6799   0.8658   0.8658   0.9672
     1.1505   1.1672   1.1672   1.1705   1.2139   1.2953   1.2953   1.3226
     1.3883   1.4078   1.4078   1.4633   1.5830   1.7015   1.7015   1.7903
     1.7910   1.8549   1.8549   1.9127   1.9206   1.9827   1.9827   2.0141
     2.0879   2.0934   2.1287   2.1288   2.1805   2.2297   2.2970   2.3221
     2.3221   2.4086   2.4087   2.5263   2.5263   2.5315   2.5599   2.5664
     2.6646   2.6680   2.6680   2.7354   2.9165   2.9802   3.0250   3.0250
     3.0723   3.0723   3.0782   3.1648   3.1709   3.1709   3.1870   3.2944
     3.3151   3.3151   3.3891   3.4438   3.4599   3.4908   3.4908   3.5264
     3.5264   3.5835   3.6049   3.6234   3.7673   3.7673   3.7868   3.7996
     3.8065   3.8171   3.8171   3.8533   3.8801   3.9289   3.9389   3.9742
     3.9742   4.0338   4.0338   4.0672   4.0996   4.0996   4.1408   4.1435
     4.1815   4.1815   4.2008   4.2055   4.3001   4.3001   4.3228   4.3236
     4.3436   4.3436   4.3472   4.4116   4.4658   4.5987   4.5987   4.6185
     4.6249   4.6332   4.6332   4.6443   4.6918   4.7072   4.7824   4.7825
     4.8613   4.8613   4.9013   4.9013   4.9145   5.0123   5.0308   5.0530
     5.0530   5.0860   5.1171   5.1626   5.1732   5.1732   5.1844   5.2211
     5.2410   5.2549   5.2549   5.3249   5.3414   5.3414   5.3677   5.4506
     5.4686   5.4687   5.4730   5.4757   5.5138   5.5138   5.5160   5.5187
     5.5350   5.6069   5.6069   5.6137   5.6143   5.6316   5.6466   5.6662
     5.6662   5.7050   5.7173   5.7735   5.7735   5.7745   5.8100   5.8110
     5.8342   5.8342   5.8459   5.9180   5.9193   5.9193   5.9543   5.9543
     5.9766   6.0082   6.0331   6.0332   6.0799   6.0799   6.1103   6.1141
     6.1699   6.2018   6.2018   6.2394   6.2394   6.2403   6.3037   6.3037
     6.3329   6.3583   6.3919   6.4121   6.4121   6.4227   6.4548   6.4662
     6.4663   6.5354   6.5891

          k =-0.5000-0.8660 0.0000 (108310 PWs)   bands (ev):

   -67.2620 -67.2619 -67.2404 -67.2404 -67.2142 -67.2142 -67.2125 -67.2125
   -67.2089 -67.2089 -67.2010 -67.2010 -67.1997 -67.1997 -67.1959 -67.1959
   -67.1833 -67.1833 -67.1817 -67.1817 -67.1777 -67.1777 -67.1756 -67.1756
   -67.0132 -67.0132 -66.9975 -66.9975 -66.9778 -66.9778 -66.9752 -66.9752
   -66.9702 -66.9702 -66.9670 -66.9670 -66.9152 -66.9152 -66.9037 -66.9037
   -66.8670 -66.8669 -66.8626 -66.8626 -66.8608 -66.8608 -66.8571 -66.8571
   -39.0666 -39.0666 -39.0429 -39.0429 -38.9379 -38.9379 -38.9331 -38.9331
   -38.9081 -38.9081 -38.9046 -38.9046 -38.8699 -38.8699 -38.8429 -38.8429
   -38.8069 -38.8069 -38.7973 -38.7973 -38.7920 -38.7920 -38.7716 -38.7716
   -38.7337 -38.7337 -38.7216 -38.7216 -38.6667 -38.6667 -38.6436 -38.6436
   -38.6376 -38.6376 -38.6279 -38.6279 -38.6163 -38.6163 -38.6051 -38.6051
   -38.5995 -38.5995 -38.5906 -38.5906 -38.5777 -38.5777 -38.5448 -38.5448
   -38.5447 -38.5447 -38.5399 -38.5399 -38.5365 -38.5365 -38.5275 -38.5275
   -38.5206 -38.5206 -38.5129 -38.5129 -38.5111 -38.5111 -38.4875 -38.4875
   -38.4689 -38.4689 -38.4617 -38.4617 -38.4598 -38.4598 -38.4562 -38.4562
   -38.4414 -38.4414 -38.4387 -38.4387 -38.4102 -38.4102 -38.4081 -38.4081
   -38.4045 -38.4045 -38.3907 -38.3907 -38.3737 -38.3737 -38.3548 -38.3548
[...]
     4.3958   4.3958   4.4121   4.4625   4.4913   4.6332   4.6544   4.6544
     4.6943   4.6943   4.7183   4.7271   4.7567   4.8273   4.8452   4.8452
     4.9291   4.9291   4.9723   4.9876   4.9876   5.0537   5.0939   5.1203
     5.1412   5.1412   5.1756   5.2251   5.2411   5.2412   5.2447   5.2825
     5.2921   5.3164   5.3164   5.3984   5.4021   5.4021   5.4334   5.5284
     5.5355   5.5355   5.5361   5.5491   5.5823   5.5831   5.5831   5.5986
     5.6157   5.6678   5.6704   5.6704   5.6776   5.6901   5.7107   5.7271
     5.7271   5.7642   5.7881   5.8378   5.8379   5.8542   5.8760   5.8807
     5.9045   5.9045   5.9236   5.9930   5.9930   6.0081   6.0371   6.0371
     6.0671   6.0970   6.1043   6.1195   6.1565   6.1565   6.1665   6.1733
     6.2593   6.2713   6.2713   6.3159   6.3195   6.3195   6.3657   6.3657
     6.4067   6.4460   6.4591   6.4625   6.4625   6.5088   6.5361   6.5361
     6.5469   6.6061   6.6612

          k =-0.5000-0.8660 0.0000 (108310 PWs)   bands (ev):

   -67.1984 -67.1984 -67.1774 -67.1774 -67.1507 -67.1507 -67.1484 -67.1484
   -67.1474 -67.1474 -67.1400 -67.1400 -67.1354 -67.1354 -67.1334 -67.1334
   -67.1159 -67.1159 -67.1142 -67.1142 -67.1096 -67.1096 -67.1071 -67.1071
   -66.9560 -66.9560 -66.9430 -66.9430 -66.9110 -66.9110 -66.9064 -66.9064
   -66.9040 -66.9040 -66.9002 -66.9002 -66.8503 -66.8503 -66.8391 -66.8391
   -66.8004 -66.8004 -66.7961 -66.7961 -66.7944 -66.7944 -66.7907 -66.7907
   -38.9917 -38.9917 -38.9681 -38.9681 -38.8653 -38.8653 -38.8634 -38.8634
   -38.8411 -38.8411 -38.8409 -38.8409 -38.8038 -38.8038 -38.7736 -38.7736
   -38.7437 -38.7437 -38.7399 -38.7399 -38.7392 -38.7392 -38.7170 -38.7170
   -38.6659 -38.6659 -38.6595 -38.6595 -38.6552 -38.6552 -38.6360 -38.6360
   -38.6001 -38.6001 -38.5634 -38.5634 -38.5567 -38.5567 -38.5403 -38.5403
   -38.5331 -38.5331 -38.5297 -38.5297 -38.5152 -38.5152 -38.4982 -38.4982
   -38.4955 -38.4955 -38.4887 -38.4887 -38.4756 -38.4756 -38.4744 -38.4744
   -38.4589 -38.4589 -38.4555 -38.4555 -38.4503 -38.4503 -38.4221 -38.4221
   -38.4127 -38.4127 -38.4083 -38.4083 -38.3945 -38.3945 -38.3931 -38.3931
   -38.3768 -38.3768 -38.3725 -38.3725 -38.3512 -38.3512 -38.3448 -38.3448
   -38.3366 -38.3366 -38.3258 -38.3258 -38.3157 -38.3157 -38.2988 -38.2988
   -38.2699 -38.2699 -38.2657 -38.2657 -38.2628 -38.2628 -38.2525 -38.2525
   -38.2303 -38.2303 -38.2223 -38.2223 -38.2191 -38.2191 -38.1983 -38.1983
   -38.1881 -38.1881 -38.1693 -38.1693 -38.1514 -38.1514 -38.1506 -38.1506
   -38.1450 -38.1450 -38.1389 -38.1389 -38.1264 -38.1264 -38.1234 -38.1234
   -38.1184 -38.1184 -38.1178 -38.1178 -38.0761 -38.0761 -38.0676 -38.0676
   -38.0604 -38.0604 -38.0496 -38.0496 -38.0308 -38.0308 -38.0273 -38.0273
   -37.9036 -37.9036 -37.8921 -37.8921 -37.8837 -37.8837 -37.8719 -37.8719
   -12.4256 -12.4256 -12.0543 -12.0543 -12.0431 -12.0431 -11.8001 -11.8001
   -11.6350 -11.6350 -11.5259 -11.5259 -11.5121 -11.5121 -11.4245 -11.4245
   -11.3068 -11.3068 -11.2127 -11.2127  -9.4457  -9.4457  -9.3826  -9.3826
    -3.1094  -3.1094  -3.0080  -3.0080  -2.9449  -2.9449  -2.9287  -2.9287
    -2.8039  -2.8039  -2.6944  -2.6944  -2.5234  -2.5234  -2.4728  -2.4728
    -2.4193  -2.4193  -2.2658  -2.2658  -2.1977  -2.1977  -2.0045  -2.0045
    -1.8710  -1.8710  -1.8145  -1.8145  -1.7255  -1.7255  -1.6118  -1.6118
    -1.5986  -1.5986  -1.4938  -1.4938  -1.4278  -1.4278  -1.4000  -1.4000
    -1.2876  -1.2876  -1.2147  -1.2147  -1.1868  -1.1868  -1.0729  -1.0729
    -1.0241  -1.0241  -0.9922  -0.9922  -0.9132  -0.9132  -0.8279  -0.8279
    -0.7663  -0.7663  -0.6079  -0.6079   0.5700   0.5700   0.6177   0.6177
     0.8664   0.8664   0.8799   0.8799   0.8955   0.8955   0.9397   0.9397
     1.1828   1.1828   1.4315   1.4315   1.7060   1.7060   1.7256   1.7256
     1.8303   1.8303   1.8659   1.8659   2.0013   2.0013   2.1777   2.1777
     2.1813   2.1813   2.2300   2.2300   2.2750   2.2750   2.2791   2.2791
     2.3922   2.3922   2.5371   2.5371   2.5565   2.5565   2.6233   2.6233
     2.8262   2.8262   2.8394   2.8394   2.8982   2.8982   3.0105   3.0106
     3.1272   3.1272   3.1855   3.1855   3.2243   3.2243   3.3157   3.3157
     3.4149   3.4149   3.4750   3.4750   3.5382   3.5382   3.5924   3.5924
     3.6777   3.6777   3.6969   3.6969   3.7453   3.7453   3.7720   3.7720
     3.8093   3.8093   3.9308   3.9309   3.9435   3.9435   4.0627   4.0627
     4.1242   4.1242   4.1303   4.1304   4.1638   4.1638   4.1751   4.1751
     4.2231   4.2231   4.2422   4.2422   4.2763   4.2763   4.4068   4.4068
     4.4331   4.4331   4.4466   4.4466   4.4845   4.4845   4.6116   4.6116
     4.7789   4.7789   4.8054   4.8054   4.8564   4.8564   4.8579   4.8579
     4.9281   4.9281   4.9325   4.9325   4.9913   4.9913   5.0693   5.0694
     5.1531   5.1531   5.1562   5.1562   5.2259   5.2259   5.2654   5.2654
     5.3567   5.3567   5.3594   5.3594   5.3871   5.3871   5.4073   5.4073
     5.5338   5.5338   5.5468   5.5468   5.5804   5.5804   5.5822   5.5822
     5.6430   5.6430   5.6853   5.6853   5.6927   5.6927   5.7212   5.7212
     5.7892   5.7892   5.8109   5.8109   5.8513   5.8513   5.8744   5.8744
     5.9840   5.9840   5.9864   5.9864   5.9882   5.9883   6.0172   6.0172
     6.0393   6.0393   6.1651   6.1651   6.1709   6.1709   6.1945   6.1946
     6.2363   6.2363   6.2469   6.2469   6.2533   6.2533   6.3297   6.3297
     6.4309   6.4309   6.4322   6.4322   6.4662   6.4662   6.5405   6.5405
     6.6594   6.6594   6.6897

     the Fermi energy is     4.9965 ev

!    total energy              =  -12593.25319882 Ry
     total all-electron energy =   -103513.992926 Ry
     estimated scf accuracy    <          9.2E-11 Ry
     smearing contrib. (-TS)   =       0.00926436 Ry
     internal energy E=F+TS    =  -12593.26246318 Ry

     The total energy is F=E-TS. E is the sum of the following terms:
     one-electron contribution =  -67915.89562308 Ry
     hartree contribution      =   34062.19599562 Ry
     xc contribution           =   -1208.55957959 Ry
     ewald contribution        =   26225.18609672 Ry
     DFT-D3 Dispersion         =      -1.07039504 Ry
     one-center paw contrib.   =   -3755.11895781 Ry

     convergence has been achieved in  31 iterations

     negative rho (up, down):  2.333E-04 0.000E+00

     Forces acting on atoms (cartesian axes, Ry/au):

     atom    1 type  1   force =     0.00002974   -0.00005201   -0.00012592
     atom    2 type  1   force =    -0.00006006   -0.00000008   -0.00012564
     atom    3 type  1   force =     0.00002946    0.00004914   -0.00012551
     atom    4 type  1   force =     0.00006417    0.00011015   -0.00022728
     atom    5 type  1   force =     0.00006459   -0.00011220   -0.00022621
     atom    6 type  1   force =    -0.00012925   -0.00000032   -0.00022597
     atom    7 type  2   force =     0.00000009   -0.00000038   -0.00035977
     atom    8 type  2   force =    -0.00000008   -0.00000023    0.00027906
     atom    9 type  2   force =     0.00000019    0.00000004    0.00027901
     atom   10 type  1   force =    -0.00004965    0.00008509    0.00032028
     atom   11 type  1   force =     0.00009892    0.00000064    0.00031977
     atom   12 type  1   force =    -0.00005170   -0.00009103    0.00031853
     atom   13 type  1   force =     0.00014261    0.00024521   -0.00000423
     atom   14 type  1   force =     0.00014292   -0.00024805   -0.00000467
     atom   15 type  1   force =    -0.00028520   -0.00000012   -0.00000506
     atom   16 type  2   force =     0.00000011   -0.00000007   -0.00047869
     atom   17 type  2   force =    -0.00000045    0.00000002    0.00019757
     atom   18 type  2   force =     0.00000003   -0.00000004    0.00019749
     atom   19 type  1   force =     0.00002846   -0.00005009   -0.00012484
     atom   20 type  1   force =    -0.00005779   -0.00000055   -0.00012549
     atom   21 type  1   force =     0.00002834    0.00005191   -0.00012530
     atom   22 type  1   force =     0.00006368    0.00011168   -0.00022763
     atom   23 type  1   force =     0.00006329   -0.00011004   -0.00022759
     atom   24 type  1   force =    -0.00012817   -0.00000029   -0.00022791
     atom   25 type  2   force =    -0.00000021    0.00000052   -0.00035941
     atom   26 type  2   force =    -0.00000005    0.00000019    0.00027881
     atom   27 type  2   force =    -0.00000020    0.00000002    0.00027894
     atom   28 type  1   force =    -0.00005265    0.00009057    0.00031833
     atom   29 type  1   force =     0.00010312   -0.00000047    0.00031960
     atom   30 type  1   force =    -0.00005182   -0.00008774    0.00031976
     atom   31 type  1   force =     0.00014095    0.00024782   -0.00000510
     atom   32 type  1   force =     0.00014045   -0.00024428   -0.00000509
     atom   33 type  1   force =    -0.00028424   -0.00000124   -0.00000510
     atom   34 type  2   force =     0.00000027    0.00000004   -0.00047879
     atom   35 type  2   force =     0.00000019    0.00000008    0.00019671
     atom   36 type  2   force =    -0.00000007   -0.00000027    0.00019755
     atom   37 type  1   force =     0.00002891   -0.00005097   -0.00012566
     atom   38 type  1   force =    -0.00005766   -0.00000120   -0.00012510
     atom   39 type  1   force =     0.00002961    0.00005000   -0.00012573
     atom   40 type  1   force =     0.00006394    0.00011055   -0.00022771
     atom   41 type  1   force =     0.00006327   -0.00011096   -0.00022715
     atom   42 type  1   force =    -0.00012743   -0.00000030   -0.00022710
     atom   43 type  2   force =     0.00000015   -0.00000039   -0.00035968
     atom   44 type  2   force =    -0.00000002   -0.00000031    0.00027902
     atom   45 type  2   force =     0.00000002    0.00000007    0.00027882
     atom   46 type  1   force =    -0.00005075    0.00008826    0.00031883
     atom   47 type  1   force =     0.00010455   -0.00000024    0.00031845
     atom   48 type  1   force =    -0.00005122   -0.00008855    0.00031888
     atom   49 type  1   force =     0.00014232    0.00024498   -0.00000409
     atom   50 type  1   force =     0.00014096   -0.00024655   -0.00000390
     atom   51 type  1   force =    -0.00028318   -0.00000018   -0.00000429
     atom   52 type  2   force =    -0.00000022   -0.00000021   -0.00047884
     atom   53 type  2   force =    -0.00000025   -0.00000032    0.00019753
     atom   54 type  2   force =    -0.00000018    0.00000012    0.00019678
     atom   55 type  1   force =     0.00003017   -0.00005014   -0.00012542
     atom   56 type  1   force =    -0.00005951    0.00000120   -0.00012555
     atom   57 type  1   force =     0.00003050    0.00005222   -0.00012509
     atom   58 type  1   force =     0.00006486    0.00011174   -0.00022600
     atom   59 type  1   force =     0.00006511   -0.00011060   -0.00022773
     atom   60 type  1   force =    -0.00012810    0.00000063   -0.00022735
     atom   61 type  2   force =    -0.00000017    0.00000027   -0.00035928
     atom   62 type  2   force =    -0.00000009    0.00000040    0.00027877
     atom   63 type  2   force =     0.00000011    0.00000006    0.00027884
     atom   64 type  1   force =    -0.00005048    0.00008905    0.00031937
     atom   65 type  1   force =     0.00010087    0.00000022    0.00031919
     atom   66 type  1   force =    -0.00004915   -0.00008561    0.00031977
     atom   67 type  1   force =     0.00014271    0.00024653   -0.00000539
     atom   68 type  1   force =     0.00014405   -0.00024525   -0.00000522
     atom   69 type  1   force =    -0.00028432    0.00000130   -0.00000432
     atom   70 type  2   force =    -0.00000018    0.00000017   -0.00047896
     atom   71 type  2   force =     0.00000045    0.00000014    0.00019756
     atom   72 type  2   force =     0.00000038    0.00000026    0.00019753

     Total force =     0.002394     Total SCF correction =     0.000059
     Energy error            =      9.9E-06 Ry
     Gradient error          =      4.8E-04 Ry/Bohr

     bfgs converged in   7 scf cycles and   6 bfgs steps
     (criteria: energy <  1.0E-04 Ry, force <  1.0E-03 Ry/Bohr)

     End of BFGS Geometry Optimization

     Final energy             =  -12593.2531988171 Ry

     File ./tmp/Cr2N_slab.bfgs deleted, as requested
Begin final coordinates

ATOMIC_POSITIONS (angstrom)
Cr              -1.5963320133        2.7649288998       23.2320134278
Cr               3.1926663407        0.0000040541       23.2320115352
Cr               0.7793516761        1.3498811361       23.2320115898
Cr               1.6298620534        2.8230052009       21.1034775171
Cr              -0.7458236140        1.2918063364       21.1034748141
Cr               1.4916468023        0.0000030993       21.1034749841
N               -0.0000004017        0.0000026910       20.0619416089
N                2.3756844454        1.3716038324       22.0888602134
N               -0.0000004855        2.7432043374       22.0888605554
Cr              -1.6463077301        2.8514876508       27.5020739541
Cr               3.2926124502        0.0000023819       27.5020739898
Cr               0.7293941519        1.2633510265       27.5020800151
Cr               1.5941653342        2.7611765061       25.4247749499
Cr              -0.7815181919        1.3536311956       25.4247757112
Cr               1.5630344577        0.0000031514       25.4247785913
N               -0.0000000650        0.0000017288       24.3155802845
N                2.3756886597        1.3716018619       26.5452210396
N               -0.0000035665        2.7432060009       26.5452212886
Cr              -3.9720181083        6.8797355475       23.2320088515
Cr               0.8169805068        4.1148053987       23.2320111063
Cr              -1.5963312902        5.4646813715       23.2320097153
Cr              -0.7458222607        6.9378090865       21.1034776579
Cr              -3.1215065405        5.4066065508       21.1034789148
Cr              -0.8840386262        4.1148053996       21.1034773253
N               -2.3756834996        4.1148046616       20.0619413760
N                0.0000003658        5.4864073607       22.0888604359
N               -2.3756845574        6.8580107957       22.0888608139
Cr              -4.0219752677        6.9662623355       27.5020799919
Cr               0.9169088923        4.1148047153       27.5020817869
Cr              -1.6462987003        5.3781411041       27.5020810190
Cr              -0.7815134038        6.8759798751       25.4247735328
Cr              -3.1572031850        5.4684329621       25.4247789106
Cr              -0.8126484288        4.1148099770       25.4247725492
N               -2.3756855945        4.1148075106       24.3155796582
N               -0.0000007445        5.4864076463       26.5452254906
N               -2.3756821336        6.8580126919       26.5452205616
Cr               3.1550374943        2.7649294343       23.2320117527
Cr               7.9440354520        0.0000042636       23.2320101920
Cr               5.5307218861        1.3498811291       23.2320121390
Cr               6.3812321189        2.8230040677       21.1034779357
Cr               4.0055469162        1.2918050501       21.1034769876
Cr               6.2430143306        0.0000026326       21.1034776263
N                4.7513692546        0.0000028182       20.0619417756
N                7.1270551194        1.3716041687       22.0888603851
N                4.7513696159        2.7432047278       22.0888601479
Cr               3.1050713239        2.8514715749       27.5020818628
Cr               8.0439511218        0.0000018719       27.5020798230
Cr               5.4807605499        1.2633405608       27.5020824875
Cr               6.3455320651        2.7611808729       25.4247718962
Cr               3.9698553814        1.3536345128       25.4247705520
Cr               6.3144076985        0.0000028155       25.4247755984
N                4.7513713475        0.0000017635       24.3155802263
N                7.1270560151        1.3716072254       26.5452206217
N                4.7513696793        2.7432046296       26.5452250390
Cr               0.7793521396        6.8797336535       23.2320104641
Cr               5.5683494959        4.1148037034       23.2320118829
Cr               3.1550355925        5.4646810793       23.2320102482
Cr               4.0055455326        6.9378080814       21.1034755369
Cr               1.6298619684        5.4066073393       21.1034779935
Cr               3.8673290170        4.1148053751       21.1034776005
N                2.3756850820        4.1148057977       20.0619400969
N                4.7513695308        5.4864074711       22.0888610124
N                2.3756850484        6.8580101119       22.0888607371
Cr               0.7293904981        6.9662739990       27.5020818599
Cr               5.6682780486        4.1148066090       27.5020828366
Cr               3.1050640429        5.3781250716       27.5020743804
Cr               3.9698514585        6.8759844235       25.4247788749
Cr               1.5941631581        5.4684309926       25.4247748929
Cr               3.9387211729        4.1148009205       25.4247717093
N                2.3756842798        4.1148051044       24.3155806422
N                4.7513653307        5.4864062052       26.5452204402
N                2.3756848655        6.8580062200       26.5452209348
End final coordinates



     Writing all to output data dir ./tmp/Cr2N_slab.save/ :
     XML data file, charge density, pseudopotentials, collected wavefunctions
 
     init_run     :     18.07s CPU     18.86s WALL (       1 calls)
     electrons    :  11575.66s CPU  11834.42s WALL (       7 calls)
     update_pot   :      7.15s CPU      7.45s WALL (       6 calls)
     forces       :     70.53s CPU     72.80s WALL (       7 calls)
     force_dftd3  :      2.58s CPU      2.65s WALL (       7 calls)

     Called by init_run:
     wfcinit      :     13.95s CPU     14.34s WALL (       1 calls)
     potinit      :      0.98s CPU      1.15s WALL (       1 calls)
     hinit0       :      0.32s CPU      0.37s WALL (       1 calls)

     Called by electrons:
     c_bands      :   9576.26s CPU   9738.07s WALL (     288 calls)
     sum_band     :   1581.90s CPU   1629.72s WALL (     288 calls)
     v_of_rho     :    167.89s CPU    179.99s WALL (     294 calls)
     newd         :    111.48s CPU    143.79s WALL (     294 calls)
     PAW_pot      :    106.59s CPU    107.69s WALL (     300 calls)
     mix_rho      :     23.30s CPU     25.04s WALL (     288 calls)
     energy_dftd3 :      0.64s CPU      0.65s WALL (       7 calls)

     Called by c_bands:
     init_us_2    :    160.40s CPU    162.07s WALL (    1770 calls)
     cegterg      :   8959.65s CPU   9118.01s WALL (     864 calls)

     Called by *egterg:
     cdiaghg      :    341.80s CPU    344.22s WALL (    3107 calls)
     h_psi        :   4405.59s CPU   4473.22s WALL (    3131 calls)
     s_psi        :   1009.99s CPU   1016.47s WALL (    3131 calls)
     g_psi        :     19.71s CPU     19.87s WALL (    2264 calls)

     Called by h_psi:
     h_psi:calbec :   1028.38s CPU   1035.62s WALL (    3131 calls)
     vloc_psi     :   2328.61s CPU   2357.95s WALL (    3131 calls)
                                        0.00s GPU  (    3131 calls)
     add_vuspsi   :   1013.27s CPU   1019.89s WALL (    3131 calls)

     General routines
     calbec       :   1548.22s CPU   1558.79s WALL (    4097 calls)
     fft          :    107.12s CPU    117.83s WALL (    3892 calls)
     ffts         :      1.82s CPU      2.06s WALL (     582 calls)
     fftw         :   2279.05s CPU   2306.51s WALL ( 2170608 calls)
     interpolate  :      9.71s CPU     10.77s WALL (     294 calls)
 
     Parallel routines
 
     PWSCF        :      3h14m CPU      3h19m WALL

 
   This run was terminated on:  21:46: 7  25Jun2026            

=------------------------------------------------------------------------------=
   JOB DONE.
=------------------------------------------------------------------------------=
