
     Program PWSCF v.7.5 starts on  2Jun2026 at 12:12:41 

     This program is part of the open-source Quantum ESPRESSO suite
     for quantum simulation of materials; please cite
         "P. Giannozzi et al., J. Phys.:Condens. Matter 21 395502 (2009);
         "P. Giannozzi et al., J. Phys.:Condens. Matter 29 465901 (2017);
         "P. Giannozzi et al., J. Chem. Phys. 152 154105 (2020);
          URL http://www.quantum-espresso.org", 
     in publications or presentations arising from this work. More details at
     http://www.quantum-espresso.org/quote

     Parallel version (MPI & OpenMP), running on      64 processor cores
     Number of MPI processes:                64
     Threads/MPI process:                     1

     MPI processes distributed on     1 nodes
     340109 MiB available memory on the printing compute node when the environment starts
 
     Reading input from generated_inputs/adsorcion/pw-CH4-H13_Rot30_bridge_.in
Warning: card &CELL ignored

     Current dimensions of program PWSCF are:
     Max number of different atomic species (ntypx) = 10
     Max number of k-points (npk) =  40000
     Max angular momentum in pseudopotentials (lmaxx) =  4
     file Cr.pbe-spn-kjpaw_psl.1.0.0.UPF: wavefunction(s)  3S 3P 3D renormalized
     file N.pbe-n-kjpaw_psl.1.0.0.UPF: wavefunction(s)  2S renormalized
     file C.pbe-n-kjpaw_psl.1.0.0.UPF: wavefunction(s)  2S 2P renormalized
     file H.pbe-kjpaw_psl.1.0.0.UPF: wavefunction(s)  1S renormalized
 
     K-points division:     npool     =       4
     R & G space division:  proc/nbgrp/npool/nimage =      16
     Subspace diagonalization in iterative solution of the eigenvalue problem:
     one sub-group per band group will be used
     scalapack distributed-memory algorithm (size of sub-group:  4*  4 procs)

 
     Parallelization info
     --------------------
     sticks:   dense  smooth     PW     G-vecs:    dense   smooth      PW
     Min        1166     388    102               281408    54158    7274
     Max        1167     389    103               281417    54165    7281
     Sum       18661    6217   1639              4502593   866593  116429
 
     Using Slab Decomposition
 


     bravais-lattice index     =            0
     lattice parameter (alat)  =      17.9576  a.u.
     unit-cell volume          =   10952.5767 (a.u.)^3
     number of atoms/cell      =           77
     number of atomic types    =            4
     number of electrons       =       800.00
     number of Kohn-Sham states=          480
     kinetic-energy cutoff     =      70.0000  Ry
     charge density cutoff     =     840.0000  Ry
     scf convergence threshold =      1.0E-08
     mixing beta               =       0.2000
     number of iterations used =            8  plain     mixing
     energy convergence thresh.=      1.0E-04
     force convergence thresh. =      1.0E-03
     Exchange-correlation= SLA  PW   PBX  PBC
                           (   1   4   3   4   0   0   0)
     nstep                     =          200


     celldm(1)=  17.957575  celldm(2)=   0.000000  celldm(3)=   0.000000
     celldm(4)=   0.000000  celldm(5)=   0.000000  celldm(6)=   0.000000

     crystal axes: (cart. coord. in units of alat)
               a(1) = (   1.000000   0.000000   0.000000 )  
               a(2) = (  -0.500000   0.866025   0.000000 )  
               a(3) = (   0.000000   0.000000   2.183951 )  

     reciprocal axes: (cart. coord. in units 2 pi/alat)
               b(1) = (  1.000000  0.577351  0.000000 )  
               b(2) = (  0.000000  1.154701  0.000000 )  
               b(3) = (  0.000000  0.000000  0.457886 )  


     PseudoPot. # 1 for Cr read from file:
     pseudo/Cr.pbe-spn-kjpaw_psl.1.0.0.UPF
     MD5 check sum: 198f1a2427a48552563eee314eba32ba
     Pseudo is Projector augmented-wave + core cor, Zval = 14.0
     Generated using &quot;atomic&quot; code by A. Dal Corso  v.6.3
     Shape of augmentation charge: PSQ
     Using radial grid of 1183 points,  6 beta functions with: 
                l(1) =   0
                l(2) =   0
                l(3) =   1
                l(4) =   1
                l(5) =   2
                l(6) =   2
     Q(r) pseudized with 0 coefficients 


     PseudoPot. # 2 for N  read from file:
     pseudo/N.pbe-n-kjpaw_psl.1.0.0.UPF
     MD5 check sum: 14c48229446f9f2d411169a3abcbc3fa
     Pseudo is Projector augmented-wave + core cor, Zval =  5.0
     Generated using &quot;atomic&quot; code by A. Dal Corso  v.6.3
     Shape of augmentation charge: PSQ
     Using radial grid of 1085 points,  4 beta functions with: 
                l(1) =   0
                l(2) =   0
                l(3) =   1
                l(4) =   1
     Q(r) pseudized with 0 coefficients 


     PseudoPot. # 3 for C  read from file:
     pseudo/C.pbe-n-kjpaw_psl.1.0.0.UPF
     MD5 check sum: 5f16ad9a65e90284d1d834d4ab3b0f7d
     Pseudo is Projector augmented-wave + core cor, Zval =  4.0
     Generated using &quot;atomic&quot; code by A. Dal Corso  v.6.3
     Shape of augmentation charge: PSQ
     Using radial grid of 1073 points,  4 beta functions with: 
                l(1) =   0
                l(2) =   0
                l(3) =   1
                l(4) =   1
     Q(r) pseudized with 0 coefficients 


     PseudoPot. # 4 for H  read from file:
     pseudo/H.pbe-kjpaw_psl.1.0.0.UPF
     MD5 check sum: d81a744832360e4a8af0b0b5b123bc2a
     Pseudo is Projector augmented-wave, Zval =  1.0
     Generated using &quot;atomic&quot; code by A. Dal Corso  v.6.3MaX
     Shape of augmentation charge: PSQ
     Using radial grid of  929 points,  2 beta functions with: 
                l(1) =   0
                l(2) =   0
     Q(r) pseudized with 0 coefficients 


     atomic species   valence    mass     pseudopotential
     Cr               14.00    51.99610     Cr( 1.00)
     N                 5.00    14.00670     N ( 1.00)
     C                 4.00    12.01100     C ( 1.00)
     H                 1.00     1.00800     H ( 1.00)

     No symmetry found



   Cartesian axes

     site n.     atom                  positions (alat units)
         1        Cr     tau(   1) = (  -0.1681591   0.2912601   0.8673998  )
         2        Cr     tau(   2) = (   0.3363182   0.0000000   0.8673998  )
         3        Cr     tau(   3) = (   0.0818405   0.1417518   0.8673993  )
         4        Cr     tau(   4) = (   0.1684970   0.2918454   0.6425759  )
         5        Cr     tau(   5) = (  -0.0815030   0.1411673   0.6425759  )
         6        Cr     tau(   6) = (   0.1630059   0.0000000   0.6425759  )
         7        N      tau(   7) = (   0.0000000   0.0000000   0.5261641  )
         8        N      tau(   8) = (   0.2500000   0.1443376   0.7485579  )
         9        N      tau(   9) = (   0.0000000   0.2886752   0.7485579  )
        10        Cr     tau(  10) = (  -0.1730001   0.2996450   1.3148727  )
        11        Cr     tau(  11) = (   0.3460003   0.0000000   1.3148727  )
        12        Cr     tau(  12) = (   0.0770029   0.1333729   1.3148745  )
        13        Cr     tau(  13) = (   0.1677092   0.2904808   1.0968932  )
        14        Cr     tau(  14) = (  -0.0822901   0.1425306   1.0968938  )
        15        Cr     tau(  15) = (   0.1645802   0.0000000   1.0968938  )
        16        N      tau(  16) = (   0.0000000   0.0000000   0.9808490  )
        17        N      tau(  17) = (   0.2500004   0.1443372   1.2145625  )
        18        N      tau(  18) = (  -0.0000005   0.2886753   1.2145625  )
        19        Cr     tau(  19) = (  -0.4181595   0.7242736   0.8673993  )
        20        Cr     tau(  20) = (   0.0863184   0.4330126   0.8674001  )
        21        Cr     tau(  21) = (  -0.1681593   0.5747652   0.8674001  )
        22        Cr     tau(  22) = (  -0.0815030   0.7248581   0.6425759  )
        23        Cr     tau(  23) = (  -0.3315030   0.5741800   0.6425759  )
        24        Cr     tau(  24) = (  -0.0869941   0.4330127   0.6425759  )
        25        N      tau(  25) = (  -0.2500000   0.4330127   0.5261641  )
        26        N      tau(  26) = (   0.0000000   0.5773503   0.7485581  )
        27        N      tau(  27) = (  -0.2500000   0.7216878   0.7485579  )
        28        Cr     tau(  28) = (  -0.4229971   0.7326525   1.3148745  )
        29        Cr     tau(  29) = (   0.0959968   0.4330121   1.3148749  )
        30        Cr     tau(  30) = (  -0.1729989   0.5663837   1.3148749  )
        31        Cr     tau(  31) = (  -0.0822898   0.7234940   1.0968932  )
        32        Cr     tau(  32) = (  -0.3322908   0.5755446   1.0968932  )
        33        Cr     tau(  33) = (  -0.0854193   0.4330133   1.0968932  )
        34        N      tau(  34) = (  -0.2500001   0.4330128   0.9808490  )
        35        N      tau(  35) = (   0.0000000   0.5773503   1.2145635  )
        36        N      tau(  36) = (  -0.2499996   0.7216882   1.2145625  )
        37        Cr     tau(  37) = (   0.3318407   0.2912602   0.8674001  )
        38        Cr     tau(  38) = (   0.8363191   0.0000000   0.8673993  )
        39        Cr     tau(  39) = (   0.5818409   0.1417524   0.8674001  )
        40        Cr     tau(  40) = (   0.6684970   0.2918454   0.6425759  )
        41        Cr     tau(  41) = (   0.4184970   0.1411673   0.6425759  )
        42        Cr     tau(  42) = (   0.6630059   0.0000000   0.6425759  )
        43        N      tau(  43) = (   0.5000000   0.0000000   0.5261641  )
        44        N      tau(  44) = (   0.7500000   0.1443376   0.7485579  )
        45        N      tau(  45) = (   0.5000000   0.2886751   0.7485581  )
        46        Cr     tau(  46) = (   0.3270011   0.2996417   1.3148749  )
        47        Cr     tau(  47) = (   0.8459942   0.0000000   1.3148745  )
        48        Cr     tau(  48) = (   0.5770021   0.1333704   1.3148749  )
        49        Cr     tau(  49) = (   0.6677091   0.2904819   1.0968932  )
        50        Cr     tau(  50) = (   0.4177102   0.1425314   1.0968932  )
        51        Cr     tau(  51) = (   0.6645817   0.0000000   1.0968932  )
        52        N      tau(  52) = (   0.5000001   0.0000000   0.9808490  )
        53        N      tau(  53) = (   0.7500001   0.1443381   1.2145625  )
        54        N      tau(  54) = (   0.5000000   0.2886751   1.2145635  )
        55        Cr     tau(  55) = (   0.0818409   0.7242730   0.8674001  )
        56        Cr     tau(  56) = (   0.5863184   0.4330128   0.8674001  )
        57        Cr     tau(  57) = (   0.3318409   0.5747653   0.8673998  )
        58        Cr     tau(  58) = (   0.4184970   0.7248581   0.6425759  )
        59        Cr     tau(  59) = (   0.1684970   0.5741800   0.6425759  )
        60        Cr     tau(  60) = (   0.4130059   0.4330127   0.6425759  )
        61        N      tau(  61) = (   0.2500000   0.4330127   0.5261641  )
        62        N      tau(  62) = (   0.5000000   0.5773502   0.7485579  )
        63        N      tau(  63) = (   0.2500000   0.7216878   0.7485579  )
        64        Cr     tau(  64) = (   0.0770021   0.7326550   1.3148749  )
        65        Cr     tau(  65) = (   0.5959968   0.4330133   1.3148749  )
        66        Cr     tau(  66) = (   0.3269999   0.5663804   1.3148727  )
        67        Cr     tau(  67) = (   0.4177099   0.7234948   1.0968938  )
        68        Cr     tau(  68) = (   0.1677091   0.5755435   1.0968932  )
        69        Cr     tau(  69) = (   0.4145807   0.4330121   1.0968932  )
        70        N      tau(  70) = (   0.2499999   0.4330126   0.9808490  )
        71        N      tau(  71) = (   0.4999995   0.5773501   1.2145625  )
        72        N      tau(  72) = (   0.2500001   0.7216873   1.2145625  )
        73        C      tau(  73) = (   0.2114989   0.3663269   1.6400443  )
        74        H      tau(  74) = (   0.2115083   0.3663106   1.5253427  )
        75        H      tau(  75) = (   0.2655667   0.2726789   1.6782959  )
        76        H      tau(  76) = (   0.2655667   0.4599858   1.6782693  )
        77        H      tau(  77) = (   0.1033541   0.3663323   1.6782693  )

     --------------------------------------------
     DFT-D3 Dispersion Correction (3-body terms):
     --------------------------------------------
       Reference C6 values for interpolation: 

         atom   Coordination number   C6
         H          0.912             6.05
         H          0.000            15.18
         C          0.000            98.23
         C          0.987            86.49
         C          1.998            58.72
         C          2.999            51.56
         C          3.984            36.41
         N          0.000            50.54
         N          0.994            44.25
         N          2.014            39.35
         N          2.990            31.16
         Cr         0.000          1381.48
         Cr         1.827           571.38
         Cr        10.619           306.69

       Values used:

         atom   Coordination number  R0_AB[au]  C6      C8
         Cr        12.627            3.252    306.69  28303.74
         Cr        12.627            3.252    306.69  28303.74
         Cr        12.627            3.252    306.69  28303.74
         Cr        10.143            3.252    306.69  28303.74
         Cr        10.143            3.252    306.69  28303.74
         Cr        10.143            3.252    306.69  28303.74
         N          3.022            2.478     31.29    690.36
         N          6.023            2.478     31.16    687.49
         N          6.023            2.478     31.16    687.49
         Cr         9.071            3.252    306.69  28303.74
         Cr         9.071            3.252    306.69  28303.74
         Cr         9.074            3.252    306.69  28303.74
         Cr        12.748            3.252    306.69  28303.74
         Cr        12.748            3.252    306.69  28303.74
         Cr        12.748            3.252    306.69  28303.74
         N          6.047            2.478     31.16    687.49
         N          6.032            2.478     31.16    687.49
         N          6.032            2.478     31.16    687.49
         Cr        12.627            3.252    306.69  28303.74
         Cr        12.627            3.252    306.69  28303.74
         Cr        12.627            3.252    306.69  28303.74
         Cr        10.143            3.252    306.69  28303.74
         Cr        10.143            3.252    306.69  28303.74
         Cr        10.143            3.252    306.69  28303.74
         N          3.022            2.478     31.29    690.36
         N          6.023            2.478     31.16    687.49
         N          6.023            2.478     31.16    687.49
         Cr         9.071            3.252    306.69  28303.74
         Cr         9.126            3.252    306.69  28303.74
         Cr         9.071            3.252    306.69  28303.74
         Cr        12.748            3.252    306.69  28303.74
         Cr        12.748            3.252    306.69  28303.74
         Cr        12.748            3.252    306.69  28303.74
         N          6.047            2.478     31.16    687.49
         N          6.032            2.478     31.16    687.49
         N          6.032            2.478     31.16    687.49
         Cr        12.627            3.252    306.69  28303.74
         Cr        12.627            3.252    306.69  28303.74
         Cr        12.627            3.252    306.69  28303.74
         Cr        10.143            3.252    306.69  28303.74
         Cr        10.143            3.252    306.69  28303.74
         Cr        10.143            3.252    306.69  28303.74
         N          3.022            2.478     31.29    690.36
         N          6.023            2.478     31.16    687.49
         N          6.023            2.478     31.16    687.49
         Cr         9.126            3.252    306.69  28303.74
         Cr         9.071            3.252    306.69  28303.74
         Cr         9.071            3.252    306.69  28303.74
         Cr        12.748            3.252    306.69  28303.74
         Cr        12.748            3.252    306.69  28303.74
         Cr        12.748            3.252    306.69  28303.74
         N          6.047            2.478     31.16    687.49
         N          6.032            2.478     31.16    687.49
         N          6.032            2.478     31.16    687.49
         Cr        12.627            3.252    306.69  28303.74
         Cr        12.627            3.252    306.69  28303.74
         Cr        12.627            3.252    306.69  28303.74
         Cr        10.143            3.252    306.69  28303.74
         Cr        10.143            3.252    306.69  28303.74
         Cr        10.143            3.252    306.69  28303.74
         N          3.022            2.478     31.29    690.36
         N          6.023            2.478     31.16    687.49
         N          6.023            2.478     31.16    687.49
         Cr         9.071            3.252    306.69  28303.74
         Cr         9.071            3.252    306.69  28303.74
         Cr         9.078            3.252    306.69  28303.74
         Cr        12.748            3.252    306.69  28303.74
         Cr        12.748            3.252    306.69  28303.74
         Cr        12.748            3.252    306.69  28303.74
         N          6.047            2.478     31.16    687.49
         N          6.032            2.478     31.16    687.49
         N          6.032            2.478     31.16    687.49
         C          4.015            2.750     36.63   1059.27
         H          1.079            2.062      6.13     74.05
         H          0.997            2.062      6.18     74.75
         H          0.997            2.062      6.18     74.75
         H          0.997            2.062      6.18     74.75

         Molecular C6 ( Ry / a.u.^6 ) =    974492.70


     number of k points=    10  Methfessel-Paxton smearing, width (Ry)=  0.0200
                       cart. coord. in units 2pi/alat
        k(    1) = (   0.0000000   0.0000000   0.0000000), wk =   0.1250000
        k(    2) = (   0.0000000   0.2886753   0.0000000), wk =   0.2500000
        k(    3) = (   0.0000000  -0.5773505   0.0000000), wk =   0.1250000
        k(    4) = (   0.2500000   0.4330129   0.0000000), wk =   0.2500000
        k(    5) = (  -0.2500000   0.1443376   0.0000000), wk =   0.2500000
        k(    6) = (   0.2500000   0.1443376   0.0000000), wk =   0.2500000
        k(    7) = (   0.5000000  -0.2886753   0.0000000), wk =   0.1250000
        k(    8) = (  -0.5000000  -0.2886753   0.0000000), wk =   0.1250000
        k(    9) = (  -0.2500000   0.4330129   0.0000000), wk =   0.2500000
        k(   10) = (   0.5000000  -0.0000000   0.0000000), wk =   0.2500000

     Dense  grid:  4502593 G-vectors     FFT dimensions: ( 180, 180, 375)

     Smooth grid:   866593 G-vectors     FFT dimensions: (  96,  96, 216)

     Estimated max dynamical RAM per process >     867.27 MB

     Estimated total dynamical RAM >      50.98 GB

     Initial potential from superposition of free atoms

     starting charge     799.9627, renormalised to     800.0000

     negative rho (up, down):  3.318E-04 0.000E+00
     Starting wfcs are  584 randomized atomic wfcs
     Checking if some PAW data can be deallocated... 

     total cpu time spent up to now is       19.5 secs

     Self-consistent Calculation

     iteration #  1     ecut=    70.00 Ry     beta= 0.20
     Davidson diagonalization with overlap
     ethr =  1.00E-02,  avg # of iterations =  2.7

     negative rho (up, down):  1.307E-04 0.000E+00

     total cpu time spent up to now is       65.4 secs

     total energy              =  -12610.57874985 Ry
     estimated scf accuracy    <      29.46440232 Ry

     iteration #  2     ecut=    70.00 Ry     beta= 0.20
     Davidson diagonalization with overlap
     ethr =  3.68E-03,  avg # of iterations =  6.3

     negative rho (up, down):  4.035E-04 0.000E+00

     total cpu time spent up to now is      121.0 secs

     total energy              =  -12600.02940259 Ry
     estimated scf accuracy    <     687.05667284 Ry

     iteration #  3     ecut=    70.00 Ry     beta= 0.20
     Davidson diagonalization with overlap
     ethr =  3.68E-03,  avg # of iterations =  3.0

     negative rho (up, down):  5.931E-04 0.000E+00

     total cpu time spent up to now is      163.1 secs

     total energy              =  -12608.73326264 Ry
     estimated scf accuracy    <     499.59141582 Ry

     iteration #  4     ecut=    70.00 Ry     beta= 0.20
     Davidson diagonalization with overlap
     ethr =  3.68E-03,  avg # of iterations =  1.9

     negative rho (up, down):  2.695E-04 0.000E+00

     total cpu time spent up to now is      203.2 secs

     total energy              =  -12615.00023400 Ry
     estimated scf accuracy    <      82.34538532 Ry

     iteration #  5     ecut=    70.00 Ry     beta= 0.20
     Davidson diagonalization with overlap
     ethr =  3.68E-03,  avg # of iterations =  1.4

     negative rho (up, down):  3.472E-04 0.000E+00

     total cpu time spent up to now is      241.2 secs

     total energy              =  -12615.77364375 Ry
     estimated scf accuracy    <       9.04739019 Ry

     iteration #  6     ecut=    70.00 Ry     beta= 0.20
     Davidson diagonalization with overlap
     ethr =  1.13E-03,  avg # of iterations =  2.9

     negative rho (up, down):  4.076E-04 0.000E+00

     total cpu time spent up to now is      282.7 secs

     total energy              =  -12616.19826438 Ry
     estimated scf accuracy    <       3.70540813 Ry

     iteration #  7     ecut=    70.00 Ry     beta= 0.20
     Davidson diagonalization with overlap
     ethr =  4.63E-04,  avg # of iterations = 12.6

     negative rho (up, down):  4.147E-04 0.000E+00

     total cpu time spent up to now is      333.3 secs

     total energy              =  -12616.34423286 Ry
     estimated scf accuracy    <       2.07128935 Ry

     iteration #  8     ecut=    70.00 Ry     beta= 0.20
     Davidson diagonalization with overlap
     ethr =  2.59E-04,  avg # of iterations =  2.2

     negative rho (up, down):  4.309E-04 0.000E+00

     total cpu time spent up to now is      373.6 secs

     total energy              =  -12616.37094194 Ry
     estimated scf accuracy    <       0.83317865 Ry

     iteration #  9     ecut=    70.00 Ry     beta= 0.20
     Davidson diagonalization with overlap
     ethr =  1.04E-04,  avg # of iterations =  7.8

     negative rho (up, down):  3.459E-04 0.000E+00

     total cpu time spent up to now is      421.6 secs

     total energy              =  -12616.36868260 Ry
     estimated scf accuracy    <       0.69981818 Ry

     iteration # 10     ecut=    70.00 Ry     beta= 0.20
     Davidson diagonalization with overlap
     ethr =  8.75E-05,  avg # of iterations =  2.0

     negative rho (up, down):  3.295E-04 0.000E+00

     total cpu time spent up to now is      461.7 secs

     total energy              =  -12616.36730137 Ry
     estimated scf accuracy    <       0.53810395 Ry

     iteration # 11     ecut=    70.00 Ry     beta= 0.20
     Davidson diagonalization with overlap
     ethr =  6.73E-05,  avg # of iterations =  6.9

     negative rho (up, down):  3.464E-04 0.000E+00

     total cpu time spent up to now is      507.3 secs

     total energy              =  -12616.38085692 Ry
     estimated scf accuracy    <       0.26429954 Ry

     iteration # 12     ecut=    70.00 Ry     beta= 0.20
     Davidson diagonalization with overlap
     c_bands:  2 eigenvalues not converged
     ethr =  3.30E-05,  avg # of iterations = 14.2

     negative rho (up, down):  2.483E-04 0.000E+00

     total cpu time spent up to now is      561.7 secs

     total energy              =  -12616.37662909 Ry
     estimated scf accuracy    <       0.53530381 Ry

     iteration # 13     ecut=    70.00 Ry     beta= 0.20
     Davidson diagonalization with overlap
     ethr =  3.30E-05,  avg # of iterations =  1.8

     negative rho (up, down):  2.166E-04 0.000E+00

     total cpu time spent up to now is      599.0 secs

     total energy              =  -12616.38444834 Ry
     estimated scf accuracy    <       0.11706714 Ry

     iteration # 14     ecut=    70.00 Ry     beta= 0.20
     Davidson diagonalization with overlap
     ethr =  1.46E-05,  avg # of iterations =  2.1

     negative rho (up, down):  1.894E-04 0.000E+00

     total cpu time spent up to now is      639.3 secs

     total energy              =  -12616.38557836 Ry
     estimated scf accuracy    <       0.06887899 Ry

     iteration # 15     ecut=    70.00 Ry     beta= 0.20
     Davidson diagonalization with overlap
     ethr =  8.61E-06,  avg # of iterations =  3.6

     negative rho (up, down):  1.792E-04 0.000E+00

     total cpu time spent up to now is      681.7 secs

     total energy              =  -12616.38499186 Ry
     estimated scf accuracy    <       0.20238940 Ry

     iteration # 16     ecut=    70.00 Ry     beta= 0.20
     Davidson diagonalization with overlap
     ethr =  8.61E-06,  avg # of iterations =  1.5

     negative rho (up, down):  1.806E-04 0.000E+00

     total cpu time spent up to now is      720.6 secs

     total energy              =  -12616.38722757 Ry
     estimated scf accuracy    <       0.02938356 Ry

     iteration # 17     ecut=    70.00 Ry     beta= 0.20
     Davidson diagonalization with overlap
     ethr =  3.67E-06,  avg # of iterations =  7.2

     negative rho (up, down):  1.821E-04 0.000E+00

     total cpu time spent up to now is      766.4 secs

     total energy              =  -12616.38677146 Ry
     estimated scf accuracy    <       0.06466857 Ry

     iteration # 18     ecut=    70.00 Ry     beta= 0.20
     Davidson diagonalization with overlap
     ethr =  3.67E-06,  avg # of iterations =  1.7

     negative rho (up, down):  1.849E-04 0.000E+00

     total cpu time spent up to now is      806.1 secs

     total energy              =  -12616.38760843 Ry
     estimated scf accuracy    <       0.05287301 Ry

     iteration # 19     ecut=    70.00 Ry     beta= 0.20
     Davidson diagonalization with overlap
     ethr =  3.67E-06,  avg # of iterations =  1.3

     negative rho (up, down):  1.868E-04 0.000E+00

     total cpu time spent up to now is      843.7 secs

     total energy              =  -12616.38874438 Ry
     estimated scf accuracy    <       0.00673332 Ry

     iteration # 20     ecut=    70.00 Ry     beta= 0.20
     Davidson diagonalization with overlap
     ethr =  8.42E-07,  avg # of iterations =  3.3

     negative rho (up, down):  1.890E-04 0.000E+00

     total cpu time spent up to now is      885.5 secs

     total energy              =  -12616.38888368 Ry
     estimated scf accuracy    <       0.00473513 Ry

     iteration # 21     ecut=    70.00 Ry     beta= 0.20
     Davidson diagonalization with overlap
     ethr =  5.92E-07,  avg # of iterations =  1.7

     negative rho (up, down):  1.932E-04 0.000E+00

     total cpu time spent up to now is      925.0 secs

     total energy              =  -12616.38903308 Ry
     estimated scf accuracy    <       0.00406658 Ry

     iteration # 22     ecut=    70.00 Ry     beta= 0.20
     Davidson diagonalization with overlap
     ethr =  5.08E-07,  avg # of iterations =  1.8

     negative rho (up, down):  1.956E-04 0.000E+00

     total cpu time spent up to now is      964.7 secs

     total energy              =  -12616.38910685 Ry
     estimated scf accuracy    <       0.00400271 Ry

     iteration # 23     ecut=    70.00 Ry     beta= 0.20
     Davidson diagonalization with overlap
     ethr =  5.00E-07,  avg # of iterations =  1.2

     negative rho (up, down):  2.001E-04 0.000E+00

     total cpu time spent up to now is     1002.3 secs

     total energy              =  -12616.38920344 Ry
     estimated scf accuracy    <       0.00300645 Ry

     iteration # 24     ecut=    70.00 Ry     beta= 0.20
     Davidson diagonalization with overlap
     ethr =  3.76E-07,  avg # of iterations =  1.1

     negative rho (up, down):  1.995E-04 0.000E+00

     total cpu time spent up to now is     1038.9 secs

     total energy              =  -12616.38927713 Ry
     estimated scf accuracy    <       0.00052160 Ry

     iteration # 25     ecut=    70.00 Ry     beta= 0.20
     Davidson diagonalization with overlap
     ethr =  6.52E-08,  avg # of iterations =  4.9

     negative rho (up, down):  1.999E-04 0.000E+00

     total cpu time spent up to now is     1081.6 secs

     total energy              =  -12616.38926481 Ry
     estimated scf accuracy    <       0.00144374 Ry

     iteration # 26     ecut=    70.00 Ry     beta= 0.20
     Davidson diagonalization with overlap
     ethr =  6.52E-08,  avg # of iterations =  2.1

     negative rho (up, down):  2.010E-04 0.000E+00

     total cpu time spent up to now is     1121.7 secs

     total energy              =  -12616.38927540 Ry
     estimated scf accuracy    <       0.00317149 Ry

     iteration # 27     ecut=    70.00 Ry     beta= 0.20
     Davidson diagonalization with overlap
     ethr =  6.52E-08,  avg # of iterations =  1.0

     negative rho (up, down):  2.012E-04 0.000E+00

     total cpu time spent up to now is     1157.2 secs

     total energy              =  -12616.38932259 Ry
     estimated scf accuracy    <       0.00009054 Ry

     iteration # 28     ecut=    70.00 Ry     beta= 0.20
     Davidson diagonalization with overlap
     ethr =  1.13E-08,  avg # of iterations =  5.8

     negative rho (up, down):  2.009E-04 0.000E+00

     total cpu time spent up to now is     1201.0 secs

     total energy              =  -12616.38932595 Ry
     estimated scf accuracy    <       0.00032773 Ry

     iteration # 29     ecut=    70.00 Ry     beta= 0.20
     Davidson diagonalization with overlap
     ethr =  1.13E-08,  avg # of iterations =  2.0

     negative rho (up, down):  2.013E-04 0.000E+00

     total cpu time spent up to now is     1241.1 secs

     total energy              =  -12616.38933085 Ry
     estimated scf accuracy    <       0.00016743 Ry

     iteration # 30     ecut=    70.00 Ry     beta= 0.20
     Davidson diagonalization with overlap
     ethr =  1.13E-08,  avg # of iterations =  1.0

     negative rho (up, down):  2.013E-04 0.000E+00

     total cpu time spent up to now is     1276.5 secs

     total energy              =  -12616.38933482 Ry
     estimated scf accuracy    <       0.00006033 Ry

     iteration # 31     ecut=    70.00 Ry     beta= 0.20
     Davidson diagonalization with overlap
     ethr =  7.54E-09,  avg # of iterations =  1.2

     negative rho (up, down):  2.009E-04 0.000E+00

     total cpu time spent up to now is     1314.1 secs

     total energy              =  -12616.38933415 Ry
     estimated scf accuracy    <       0.00006700 Ry

     iteration # 32     ecut=    70.00 Ry     beta= 0.20
     Davidson diagonalization with overlap
     ethr =  7.54E-09,  avg # of iterations =  1.0

     negative rho (up, down):  2.009E-04 0.000E+00

     total cpu time spent up to now is     1349.5 secs

     total energy              =  -12616.38933502 Ry
     estimated scf accuracy    <       0.00003010 Ry

     iteration # 33     ecut=    70.00 Ry     beta= 0.20
     Davidson diagonalization with overlap
     ethr =  3.76E-09,  avg # of iterations =  1.2

     negative rho (up, down):  2.005E-04 0.000E+00

     total cpu time spent up to now is     1387.3 secs

     total energy              =  -12616.38933494 Ry
     estimated scf accuracy    <       0.00000741 Ry

     iteration # 34     ecut=    70.00 Ry     beta= 0.20
     Davidson diagonalization with overlap
     ethr =  9.26E-10,  avg # of iterations =  4.0

     negative rho (up, down):  2.002E-04 0.000E+00

     total cpu time spent up to now is     1430.6 secs

     total energy              =  -12616.38933417 Ry
     estimated scf accuracy    <       0.00001607 Ry

     iteration # 35     ecut=    70.00 Ry     beta= 0.20
     Davidson diagonalization with overlap
     ethr =  9.26E-10,  avg # of iterations =  1.9

     negative rho (up, down):  1.999E-04 0.000E+00

     total cpu time spent up to now is     1470.8 secs

     total energy              =  -12616.38933397 Ry
     estimated scf accuracy    <       0.00002313 Ry

     iteration # 36     ecut=    70.00 Ry     beta= 0.20
     Davidson diagonalization with overlap
     ethr =  9.26E-10,  avg # of iterations =  1.2

     negative rho (up, down):  2.000E-04 0.000E+00

     total cpu time spent up to now is     1507.5 secs

     total energy              =  -12616.38933407 Ry
     estimated scf accuracy    <       0.00002409 Ry

     iteration # 37     ecut=    70.00 Ry     beta= 0.20
     Davidson diagonalization with overlap
     ethr =  9.26E-10,  avg # of iterations =  1.0

     negative rho (up, down):  1.999E-04 0.000E+00

     total cpu time spent up to now is     1542.8 secs

     total energy              =  -12616.38933438 Ry
     estimated scf accuracy    <       0.00000277 Ry

     iteration # 38     ecut=    70.00 Ry     beta= 0.20
     Davidson diagonalization with overlap
     ethr =  3.47E-10,  avg # of iterations =  1.8

     negative rho (up, down):  1.999E-04 0.000E+00

     total cpu time spent up to now is     1583.0 secs

     total energy              =  -12616.38933434 Ry
     estimated scf accuracy    <       0.00000337 Ry

     iteration # 39     ecut=    70.00 Ry     beta= 0.20
     Davidson diagonalization with overlap
     ethr =  3.47E-10,  avg # of iterations =  1.0

     negative rho (up, down):  1.998E-04 0.000E+00

     total cpu time spent up to now is     1618.4 secs

     total energy              =  -12616.38933433 Ry
     estimated scf accuracy    <       0.00000176 Ry

     iteration # 40     ecut=    70.00 Ry     beta= 0.20
     Davidson diagonalization with overlap
     ethr =  2.20E-10,  avg # of iterations =  1.1

     negative rho (up, down):  1.996E-04 0.000E+00

     total cpu time spent up to now is     1654.8 secs

     total energy              =  -12616.38933429 Ry
     estimated scf accuracy    <       0.00000074 Ry

     iteration # 41     ecut=    70.00 Ry     beta= 0.20
     Davidson diagonalization with overlap
     ethr =  9.24E-11,  avg # of iterations =  2.3

     negative rho (up, down):  1.996E-04 0.000E+00

     total cpu time spent up to now is     1695.5 secs

     total energy              =  -12616.38933427 Ry
     estimated scf accuracy    <       0.00000160 Ry

     iteration # 42     ecut=    70.00 Ry     beta= 0.20
     Davidson diagonalization with overlap
     ethr =  9.24E-11,  avg # of iterations =  1.1

     negative rho (up, down):  1.996E-04 0.000E+00

     total cpu time spent up to now is     1731.8 secs

     total energy              =  -12616.38933430 Ry
     estimated scf accuracy    <       0.00000058 Ry

     iteration # 43     ecut=    70.00 Ry     beta= 0.20
     Davidson diagonalization with overlap
     ethr =  7.25E-11,  avg # of iterations =  1.1

     negative rho (up, down):  1.996E-04 0.000E+00

     total cpu time spent up to now is     1768.4 secs

     total energy              =  -12616.38933431 Ry
     estimated scf accuracy    <       0.00000015 Ry

     iteration # 44     ecut=    70.00 Ry     beta= 0.20
     Davidson diagonalization with overlap
     ethr =  1.93E-11,  avg # of iterations =  5.3

     negative rho (up, down):  1.995E-04 0.000E+00

     total cpu time spent up to now is     1811.5 secs

     total energy              =  -12616.38933430 Ry
     estimated scf accuracy    <       0.00000019 Ry

     iteration # 45     ecut=    70.00 Ry     beta= 0.20
     Davidson diagonalization with overlap
     ethr =  1.93E-11,  avg # of iterations =  1.8

     negative rho (up, down):  1.995E-04 0.000E+00

     total cpu time spent up to now is     1851.2 secs

     total energy              =  -12616.38933429 Ry
     estimated scf accuracy    <       0.00000030 Ry

     iteration # 46     ecut=    70.00 Ry     beta= 0.20
     Davidson diagonalization with overlap
     ethr =  1.93E-11,  avg # of iterations =  2.0

     negative rho (up, down):  1.995E-04 0.000E+00

     total cpu time spent up to now is     1891.5 secs

     total energy              =  -12616.38933429 Ry
     estimated scf accuracy    <       0.00000125 Ry

     iteration # 47     ecut=    70.00 Ry     beta= 0.20
     Davidson diagonalization with overlap
     ethr =  1.93E-11,  avg # of iterations =  1.0

     negative rho (up, down):  1.995E-04 0.000E+00

     total cpu time spent up to now is     1927.0 secs

     total energy              =  -12616.38933430 Ry
     estimated scf accuracy    <       0.00000029 Ry

     iteration # 48     ecut=    70.00 Ry     beta= 0.20
     Davidson diagonalization with overlap
     ethr =  1.93E-11,  avg # of iterations =  1.0

     negative rho (up, down):  1.994E-04 0.000E+00

     total cpu time spent up to now is     1962.2 secs

     total energy              =  -12616.38933430 Ry
     estimated scf accuracy    <       0.00000011 Ry

     iteration # 49     ecut=    70.00 Ry     beta= 0.20
     Davidson diagonalization with overlap
     ethr =  1.32E-11,  avg # of iterations =  1.0

     negative rho (up, down):  1.994E-04 0.000E+00

     total cpu time spent up to now is     1997.7 secs

     total energy              =  -12616.38933430 Ry
     estimated scf accuracy    <       0.00000004 Ry

     iteration # 50     ecut=    70.00 Ry     beta= 0.20
     Davidson diagonalization with overlap
     ethr =  5.11E-12,  avg # of iterations =  1.3

     negative rho (up, down):  1.994E-04 0.000E+00

     total cpu time spent up to now is     2036.5 secs

     End of self-consistent calculation

          k = 0.0000 0.0000 0.0000 (108303 PWs)   bands (ev):

   -67.0739 -67.0334 -67.0333 -67.0333 -67.0252 -67.0248 -67.0244 -67.0226
   -66.9994 -66.9990 -66.9988 -66.9954 -66.9951 -66.9949 -66.9909 -66.9903
   -66.9898 -66.9886 -66.9880 -66.9779 -66.9769 -66.9760 -66.9736 -66.9723
   -66.8210 -66.7918 -66.7917 -66.7916 -66.7850 -66.7847 -66.7844 -66.7683
   -66.7680 -66.7675 -66.7616 -66.7615 -66.7290 -66.7075 -66.6973 -66.6967
   -66.6841 -66.6735 -66.6633 -66.6586 -66.6575 -66.6544 -66.6496 -66.6486
   -38.8778 -38.8507 -38.8505 -38.8486 -38.7484 -38.7484 -38.7478 -38.7091
   -38.7088 -38.6930 -38.6929 -38.6919 -38.6686 -38.6378 -38.6376 -38.6347
   -38.6148 -38.6145 -38.6138 -38.5881 -38.5844 -38.5839 -38.5506 -38.5505
   -38.5461 -38.5458 -38.5452 -38.5379 -38.4635 -38.4529 -38.4466 -38.4458
   -38.4449 -38.4412 -38.4411 -38.4392 -38.4377 -38.4376 -38.4011 -38.4008
   -38.4005 -38.3842 -38.3841 -38.3840 -38.3628 -38.3405 -38.3392 -38.3392
   -38.3366 -38.3362 -38.3357 -38.3357 -38.3356 -38.3219 -38.3172 -38.3171
   -38.3119 -38.3115 -38.3066 -38.3040 -38.3039 -38.3038 -38.3025 -38.3017
   -38.2907 -38.2891 -38.2890 -38.2845 -38.2765 -38.2753 -38.2746 -38.2298
   -38.2270 -38.2246 -38.2236 -38.2163 -38.2162 -38.2159 -38.2144 -38.2105
   -38.1986 -38.1895 -38.1895 -38.1868 -38.1692 -38.1688 -38.1683 -38.1584
   -38.1530 -38.1522 -38.1450 -38.1300 -38.1279 -38.1263 -38.1253 -38.1236
   -38.1150 -38.1127 -38.1067 -38.1064 -38.1047 -38.0774 -38.0770 -38.0769
   -38.0435 -38.0428 -38.0357 -38.0354 -38.0350 -38.0257 -38.0229 -38.0206
   -38.0196 -38.0186 -38.0177 -38.0009 -38.0001 -37.9953 -37.9952 -37.9849
   -37.9848 -37.9733 -37.9731 -37.9730 -37.9395 -37.9392 -37.9389 -37.9384
   -37.9379 -37.9378 -37.9094 -37.9092 -37.9040 -37.8898 -37.8829 -37.8824
   -37.7755 -37.7753 -37.7691 -37.7490 -37.7480 -37.7465 -37.7296 -37.7277
   -12.5749 -12.1050 -11.8726 -11.8721 -11.8715 -11.7251 -11.7238 -11.7211
   -11.7000 -11.6993 -11.6976 -11.4173 -11.4163 -11.4142 -11.3403 -11.3077
   -11.3069 -11.3053 -11.0763 -11.0547  -8.7828  -8.7828  -8.7828  -8.7252
    -7.8248  -3.0764  -3.0752  -3.0748  -2.8618  -2.8334  -2.8334  -2.6389
    -2.6389  -2.6387  -2.6188  -2.6112  -2.6110  -2.5430  -2.4844  -2.4784
    -2.4780  -2.3945  -2.3916  -2.3913  -2.3108  -2.3106  -1.8376  -1.8321
    -1.8321  -1.6555  -1.6545  -1.6538  -1.5691  -1.5663  -1.5606  -1.5017
    -1.4996  -1.4994  -1.4255  -1.4118  -1.4117  -1.4104  -1.3584  -1.3577
    -1.3009  -1.3000  -1.2986  -1.1617  -1.1615  -1.0579  -1.0024  -0.9922
    -0.9917  -0.9743  -0.9738  -0.9272  -0.8990  -0.8986  -0.8974  -0.7849
    -0.7593  -0.7586  -0.6761  -0.5094  -0.5075  -0.5072  -0.0886  -0.0733
     0.5842   1.1531   1.1533   1.1533   1.3960   1.3961   1.3961   1.4721
     1.4896   1.4897   1.5105   1.5111   1.5114   1.5324   1.5325   1.5327
     1.7035   1.7070   1.7072   1.9938   1.9941   1.9945   2.1198   2.1199
     2.1216   2.1514   2.2726   2.2781   2.2782   2.3655   2.3655   2.3698
     2.3804   2.3804   2.3804   2.4431   2.4443   2.4443   2.4613   2.6230
     2.6234   2.7265   2.7284   2.7287   3.0837   3.0838   3.1220   3.2141
     3.2141   3.2766   3.2779   3.2787   3.2933   3.2934   3.2971   3.4168
     3.4207   3.4248   3.4653   3.4838   3.4854   3.5731   3.5981   3.5981
     3.6065   3.6228   3.6239   3.6555   3.6560   3.6580   3.6628   3.7531
     3.7541   3.7573   3.9176   3.9247   3.9648   4.0669   4.0684   4.0730
     4.0876   4.0880   4.2240   4.2281   4.2286   4.2380   4.2953   4.2955
     4.2978   4.3474   4.3484   4.3487   4.3627   4.4257   4.4270   4.4274
     4.4786   4.4788   4.5751   4.6334   4.6354   4.6642   4.6773   4.7165
     4.7176   4.7460   4.7673   4.7677   4.8171   4.8193   4.8237   4.8845
     4.8888   4.8992   4.9469   4.9473   4.9791   5.0586   5.0657   5.0690
     5.1627   5.1691   5.2173   5.3223   5.3225   5.3235   5.4327   5.4328
     5.4747   5.4833   5.4834   5.4979   5.4982   5.4997   5.6245   5.6264
     5.6290   5.6367   5.6406   5.6421   5.6582   5.6595   5.6952   5.6962
     5.7224   5.7752   5.7895   5.7938   5.7962   5.8006   5.8011   5.8134
     5.8385   5.8436   5.9170   5.9221   5.9250   5.9410   5.9433   5.9439
     5.9443   5.9520   5.9982   5.9989   5.9991   6.0444   6.0517   6.0598
     6.1333   6.1349   6.1476   6.1479   6.1484   6.1927   6.1930   6.1993
     6.2032   6.2038   6.2479   6.2497   6.2505   6.2951   6.2979   6.3145
     6.4628   6.5015   6.5020   6.5026   6.5615   6.5621   6.5725   6.6019
     6.6037   6.6478   6.6501   6.6504   6.6577   6.6597   6.6795   6.7629

          k = 0.0000 0.2887 0.0000 (108355 PWs)   bands (ev):

   -67.0704 -67.0463 -67.0369 -67.0368 -67.0202 -67.0188 -67.0186 -67.0124
   -67.0036 -67.0019 -67.0016 -66.9978 -66.9976 -66.9972 -66.9911 -66.9902
   -66.9869 -66.9865 -66.9832 -66.9786 -66.9780 -66.9759 -66.9742 -66.9730
   -66.8184 -66.8007 -66.7942 -66.7937 -66.7810 -66.7804 -66.7765 -66.7699
   -66.7694 -66.7670 -66.7631 -66.7626 -66.7277 -66.7083 -66.6998 -66.6975
   -66.6829 -66.6718 -66.6615 -66.6581 -66.6574 -66.6550 -66.6505 -66.6496
   -38.8745 -38.8547 -38.8465 -38.8451 -38.7439 -38.7431 -38.7424 -38.7169
   -38.7075 -38.6997 -38.6993 -38.6967 -38.6702 -38.6550 -38.6409 -38.6385
   -38.6105 -38.6088 -38.5993 -38.5897 -38.5864 -38.5846 -38.5787 -38.5562
   -38.5400 -38.5397 -38.5379 -38.5165 -38.4570 -38.4559 -38.4510 -38.4465
   -38.4431 -38.4369 -38.4363 -38.4350 -38.4300 -38.4224 -38.4062 -38.4023
   -38.4014 -38.3926 -38.3873 -38.3863 -38.3627 -38.3560 -38.3435 -38.3412
   -38.3405 -38.3396 -38.3389 -38.3387 -38.3338 -38.3271 -38.3260 -38.3222
   -38.3197 -38.3188 -38.3120 -38.3071 -38.3068 -38.3007 -38.2916 -38.2893
   -38.2850 -38.2833 -38.2827 -38.2719 -38.2671 -38.2657 -38.2652 -38.2352
   -38.2315 -38.2304 -38.2280 -38.2276 -38.2209 -38.2154 -38.2150 -38.2021
   -38.1995 -38.1951 -38.1941 -38.1795 -38.1734 -38.1715 -38.1613 -38.1582
   -38.1553 -38.1485 -38.1448 -38.1339 -38.1297 -38.1259 -38.1239 -38.1161
   -38.1148 -38.1053 -38.1027 -38.1009 -38.0992 -38.0836 -38.0824 -38.0793
   -38.0479 -38.0435 -38.0415 -38.0332 -38.0332 -38.0308 -38.0212 -38.0188
   -38.0171 -38.0163 -38.0144 -37.9989 -37.9978 -37.9944 -37.9936 -37.9871
   -37.9854 -37.9757 -37.9756 -37.9717 -37.9455 -37.9416 -37.9414 -37.9331
   -37.9324 -37.9296 -37.9194 -37.9118 -37.9015 -37.8898 -37.8839 -37.8833
   -37.7734 -37.7724 -37.7666 -37.7499 -37.7475 -37.7437 -37.7374 -37.7300
   -12.5113 -12.0842 -12.0626 -11.9280 -11.9269 -11.7959 -11.7095 -11.7072
   -11.6344 -11.6327 -11.5540 -11.4085 -11.4062 -11.3593 -11.3401 -11.3385
   -11.3284 -11.2748 -11.1094 -11.0895  -8.7844  -8.7844  -8.7730  -8.7323
    -7.8248  -3.0443  -3.0427  -3.0023  -2.8905  -2.8195  -2.8075  -2.7824
    -2.7788  -2.7772  -2.6624  -2.6604  -2.5107  -2.4713  -2.4258  -2.4209
    -2.4203  -2.3620  -2.3096  -2.2802  -2.2770  -2.2318  -2.0319  -1.8423
    -1.8405  -1.7980  -1.7078  -1.7040  -1.6488  -1.5560  -1.5551  -1.5130
    -1.4957  -1.4674  -1.4647  -1.4415  -1.3967  -1.3954  -1.3833  -1.3276
    -1.3262  -1.3110  -1.1970  -1.1555  -1.1368  -1.0890  -1.0378  -0.9817
    -0.9730  -0.9674  -0.9147  -0.9098  -0.9066  -0.8785  -0.8510  -0.8089
    -0.7387  -0.7276  -0.6754  -0.5785  -0.5348  -0.5332  -0.0889  -0.0737
     0.7053   1.1146   1.1463   1.1465   1.3856   1.3857   1.3955   1.3978
     1.4624   1.4809   1.4815   1.5005   1.5620   1.6009   1.6026   1.6149
     1.7173   1.7188   1.7618   2.0017   2.0024   2.0456   2.0967   2.0982
     2.1507   2.2034   2.2370   2.2390   2.2632   2.3610   2.3630   2.3793
     2.3909   2.3918   2.4535   2.4848   2.4856   2.5050   2.5261   2.5553
     2.6582   2.7383   2.7388   2.8010   2.9542   3.0050   3.0681   3.1380
     3.1387   3.1694   3.1752   3.2023   3.3003   3.3027   3.3287   3.3355
     3.3361   3.3776   3.4540   3.5309   3.5377   3.5476   3.5775   3.6207
     3.6398   3.6495   3.6570   3.6685   3.7160   3.7186   3.7213   3.8036
     3.9273   3.9461   3.9567   3.9634   3.9764   3.9812   3.9944   4.0870
     4.1108   4.1176   4.1809   4.1847   4.2141   4.2374   4.2440   4.2469
     4.2732   4.2980   4.3177   4.3186   4.3410   4.4175   4.4236   4.4309
     4.4366   4.5035   4.5121   4.6087   4.6283   4.6584   4.6803   4.7054
     4.7205   4.7244   4.7741   4.7880   4.8205   4.8674   4.8772   4.8796
     4.9106   4.9148   4.9415   5.0030   5.0229   5.0758   5.0827   5.1224
     5.1335   5.1716   5.2082   5.2379   5.2638   5.2952   5.3055   5.3883
     5.4052   5.4079   5.4086   5.4595   5.4862   5.4939   5.5004   5.5131
     5.5157   5.6165   5.6405   5.6455   5.6823   5.6898   5.6957   5.7002
     5.7125   5.7461   5.7505   5.7693   5.7744   5.8226   5.8270   5.8290
     5.8316   5.8748   5.8861   5.9044   5.9103   5.9156   5.9550   5.9581
     5.9619   5.9755   5.9818   5.9853   5.9993   6.0007   6.0317   6.1151
     6.1426   6.1456   6.1644   6.1887   6.1905   6.1925   6.1957   6.2448
     6.2520   6.2541   6.2564   6.3061   6.3372   6.3425   6.3473   6.3916
     6.4046   6.4077   6.4743   6.4772   6.4908   6.4972   6.5875   6.5926
     6.6119   6.6274   6.6382   6.6581   6.6787   6.6857   6.7385   6.7399

          k = 0.0000-0.5774 0.0000 (108310 PWs)   bands (ev):

   -67.0606 -67.0606 -67.0391 -67.0389 -67.0135 -67.0132 -67.0110 -67.0110
   -67.0075 -67.0073 -66.9999 -66.9994 -66.9987 -66.9985 -66.9942 -66.9942
   -66.9826 -66.9822 -66.9813 -66.9807 -66.9773 -66.9769 -66.9747 -66.9746
   -66.8112 -66.8111 -66.7957 -66.7952 -66.7760 -66.7754 -66.7734 -66.7729
   -66.7684 -66.7679 -66.7650 -66.7648 -66.7263 -66.7093 -66.7020 -66.6981
   -66.6818 -66.6702 -66.6607 -66.6565 -66.6564 -66.6546 -66.6539 -66.6503
   -38.8656 -38.8649 -38.8422 -38.8408 -38.7374 -38.7357 -38.7323 -38.7314
   -38.7079 -38.7063 -38.7034 -38.7024 -38.6692 -38.6684 -38.6431 -38.6406
   -38.6069 -38.6045 -38.5968 -38.5962 -38.5918 -38.5895 -38.5710 -38.5694
   -38.5328 -38.5322 -38.5206 -38.5199 -38.4665 -38.4652 -38.4425 -38.4420
   -38.4362 -38.4359 -38.4270 -38.4264 -38.4154 -38.4147 -38.4041 -38.4036
   -38.3985 -38.3982 -38.3909 -38.3889 -38.3769 -38.3763 -38.3459 -38.3433
   -38.3431 -38.3428 -38.3387 -38.3383 -38.3367 -38.3347 -38.3307 -38.3251
   -38.3199 -38.3195 -38.3183 -38.3107 -38.3091 -38.3087 -38.2869 -38.2855
   -38.2736 -38.2664 -38.2639 -38.2609 -38.2592 -38.2572 -38.2556 -38.2538
   -38.2429 -38.2395 -38.2380 -38.2370 -38.2132 -38.2093 -38.2067 -38.2059
   -38.2028 -38.2026 -38.1896 -38.1885 -38.1759 -38.1728 -38.1618 -38.1555
   -38.1524 -38.1493 -38.1376 -38.1333 -38.1307 -38.1276 -38.1211 -38.1186
   -38.1127 -38.1113 -38.0983 -38.0954 -38.0924 -38.0890 -38.0695 -38.0678
   -38.0578 -38.0559 -38.0438 -38.0427 -38.0317 -38.0311 -38.0198 -38.0155
   -38.0139 -38.0129 -38.0089 -38.0069 -37.9942 -37.9913 -37.9907 -37.9885
   -37.9784 -37.9783 -37.9777 -37.9775 -37.9430 -37.9428 -37.9392 -37.9387
   -37.9290 -37.9283 -37.9194 -37.9192 -37.8988 -37.8887 -37.8858 -37.8846
   -37.7714 -37.7652 -37.7609 -37.7559 -37.7478 -37.7475 -37.7387 -37.7335
   -12.3348 -12.3339 -11.9626 -11.9614 -11.9486 -11.9467 -11.7172 -11.7150
   -11.5466 -11.5452 -11.4212 -11.4204 -11.4088 -11.4055 -11.3841 -11.3832
   -11.2019 -11.1992 -11.1822 -11.1821  -8.7860  -8.7860  -8.7513  -8.7513
    -7.8248  -3.0089  -3.0058  -2.9156  -2.9145  -2.8497  -2.8479  -2.8459
    -2.8438  -2.7219  -2.7215  -2.6053  -2.6042  -2.4422  -2.4387  -2.3769
    -2.3735  -2.3224  -2.3181  -2.1959  -2.1924  -2.1109  -2.1096  -1.9165
    -1.9160  -1.7785  -1.7728  -1.7319  -1.7280  -1.6451  -1.6412  -1.5201
    -1.5180  -1.5151  -1.5104  -1.3917  -1.3881  -1.3385  -1.3374  -1.3219
    -1.3200  -1.2062  -1.2052  -1.1245  -1.1234  -1.1093  -1.1055  -0.9801
    -0.9760  -0.9361  -0.9294  -0.9193  -0.9099  -0.8154  -0.8072  -0.7537
    -0.7454  -0.7055  -0.6959  -0.6633  -0.5585  -0.5565  -0.0891  -0.0741
     0.9481   0.9494   1.1342   1.1344   1.3642   1.3650   1.3858   1.3861
     1.4616   1.4617   1.4779   1.4781   1.6195   1.6204   1.6296   1.6341
     1.8559   1.8580   1.8630   1.8638   2.0348   2.0377   2.0735   2.0758
     2.1657   2.1671   2.2978   2.2987   2.3213   2.3218   2.3535   2.3538
     2.3920   2.3937   2.4049   2.4068   2.5132   2.5154   2.6815   2.6874
     2.7382   2.7412   2.7600   2.7629   2.9548   2.9578   2.9759   2.9768
     3.0464   3.0468   3.1412   3.1478   3.2646   3.2660   3.3267   3.3274
     3.3602   3.3621   3.4564   3.4585   3.5575   3.5632   3.6097   3.6108
     3.6734   3.6773   3.7506   3.7560   3.8068   3.8096   3.8445   3.8476
     3.8813   3.8815   3.9081   3.9206   3.9398   3.9462   4.0682   4.0820
     4.0878   4.0921   4.2152   4.2232   4.2305   4.2591   4.2713   4.2836
     4.2971   4.2997   4.3008   4.3171   4.3791   4.4002   4.4087   4.4127
     4.4166   4.4202   4.5451   4.5484   4.5495   4.5681   4.6167   4.6178
     4.6364   4.6368   4.7486   4.7650   4.9251   4.9292   4.9316   4.9342
     4.9366   4.9552   4.9999   5.0126   5.0552   5.0577   5.0741   5.0768
     5.1233   5.1255   5.2072   5.2334   5.2812   5.2824   5.2937   5.2960
     5.3755   5.3770   5.4047   5.4267   5.4611   5.4630   5.5021   5.5162
     5.5261   5.5306   5.5360   5.5647   5.6438   5.6468   5.6832   5.6839
     5.7017   5.7058   5.7120   5.7256   5.7786   5.7857   5.8125   5.8164
     5.8253   5.8362   5.8500   5.8529   5.9022   5.9211   5.9419   5.9433
     5.9781   5.9905   6.0162   6.0321   6.0938   6.1010   6.1088   6.1160
     6.1163   6.1229   6.1336   6.1379   6.1483   6.1519   6.2809   6.2822
     6.2849   6.2922   6.3262   6.3285   6.3648   6.3679   6.3842   6.3865
     6.4011   6.4060   6.4347   6.4351   6.5531   6.5568   6.5604   6.5611
     6.5942   6.5998   6.6514   6.6534   6.7913   6.7942   6.8012   6.8063

          k = 0.2500 0.4330 0.0000 (108308 PWs)   bands (ev):

   -67.0638 -67.0519 -67.0516 -67.0280 -67.0198 -67.0155 -67.0102 -67.0077
   -67.0070 -67.0051 -67.0049 -66.9993 -66.9987 -66.9954 -66.9944 -66.9919
   -66.9872 -66.9824 -66.9801 -66.9793 -66.9775 -66.9760 -66.9757 -66.9744
   -66.8135 -66.8046 -66.8046 -66.7880 -66.7813 -66.7751 -66.7718 -66.7718
   -66.7679 -66.7678 -66.7658 -66.7648 -66.7263 -66.7081 -66.7046 -66.6964
   -66.6821 -66.6702 -66.6599 -66.6579 -66.6559 -66.6553 -66.6522 -66.6509
   -38.8678 -38.8563 -38.8555 -38.8337 -38.7379 -38.7377 -38.7319 -38.7276
   -38.7131 -38.7051 -38.7023 -38.7008 -38.6698 -38.6607 -38.6606 -38.6212
   -38.6149 -38.6032 -38.6028 -38.5973 -38.5961 -38.5793 -38.5769 -38.5639
   -38.5286 -38.5284 -38.5274 -38.5161 -38.4925 -38.4450 -38.4449 -38.4440
   -38.4359 -38.4323 -38.4228 -38.4200 -38.4198 -38.4137 -38.4133 -38.4047
   -38.3983 -38.3917 -38.3914 -38.3900 -38.3729 -38.3676 -38.3665 -38.3457
   -38.3447 -38.3415 -38.3404 -38.3358 -38.3314 -38.3291 -38.3259 -38.3256
   -38.3232 -38.3201 -38.3170 -38.3109 -38.3081 -38.3068 -38.3062 -38.2725
   -38.2725 -38.2684 -38.2665 -38.2607 -38.2585 -38.2568 -38.2552 -38.2463
   -38.2442 -38.2418 -38.2405 -38.2382 -38.2151 -38.2083 -38.2075 -38.2007
   -38.1985 -38.1968 -38.1962 -38.1920 -38.1863 -38.1679 -38.1594 -38.1559
   -38.1521 -38.1502 -38.1357 -38.1356 -38.1329 -38.1276 -38.1251 -38.1209
   -38.1131 -38.1011 -38.0992 -38.0959 -38.0907 -38.0791 -38.0776 -38.0735
   -38.0579 -38.0463 -38.0462 -38.0418 -38.0329 -38.0303 -38.0234 -38.0183
   -38.0160 -38.0108 -38.0102 -38.0058 -37.9942 -37.9908 -37.9902 -37.9867
   -37.9828 -37.9812 -37.9729 -37.9728 -37.9474 -37.9474 -37.9358 -37.9349
   -37.9334 -37.9238 -37.9237 -37.9160 -37.8991 -37.8886 -37.8855 -37.8847
   -37.7692 -37.7673 -37.7611 -37.7569 -37.7504 -37.7419 -37.7413 -37.7329
   -12.3911 -12.1779 -12.1776 -11.9840 -11.8495 -11.8489 -11.8005 -11.6329
   -11.6073 -11.4968 -11.4778 -11.4773 -11.4617 -11.3968 -11.2847 -11.2841
   -11.2623 -11.2620 -11.1729 -11.1544  -8.7946  -8.7672  -8.7672  -8.7456
    -7.8248  -3.0585  -2.9600  -2.9591  -2.9429  -2.8307  -2.8301  -2.7897
    -2.7538  -2.7020  -2.6886  -2.6661  -2.6647  -2.6198  -2.4304  -2.2956
    -2.2933  -2.2815  -2.2574  -2.2054  -2.2020  -2.1589  -2.1577  -2.0328
    -1.8562  -1.8488  -1.7681  -1.7420  -1.6545  -1.6007  -1.5990  -1.5218
    -1.4972  -1.4789  -1.4491  -1.4454  -1.4401  -1.4396  -1.3808  -1.2622
    -1.2612  -1.2162  -1.2158  -1.1940  -1.1481  -1.0349  -1.0167  -1.0093
    -0.9589  -0.9434  -0.9343  -0.9107  -0.8924  -0.8834  -0.8388  -0.8274
    -0.7357  -0.6797  -0.6371  -0.6261  -0.6227  -0.5297  -0.0891  -0.0741
     0.8821   1.0661   1.0662   1.1669   1.3511   1.3677   1.3679   1.3701
     1.4136   1.4950   1.4951   1.5223   1.5881   1.6076   1.6079   1.6657
     1.7838   1.9021   1.9031   1.9907   1.9917   2.0551   2.0560   2.1135
     2.1204   2.1830   2.1832   2.2149   2.2892   2.2951   2.3298   2.3299
     2.3809   2.4309   2.4975   2.5238   2.5246   2.6088   2.6094   2.7249
     2.7270   2.7310   2.7619   2.7667   2.8645   2.8687   2.8694   2.9359
     3.1177   3.1811   3.2261   3.2268   3.2722   3.2728   3.2798   3.3658
     3.3708   3.3716   3.3879   3.4960   3.5154   3.5164   3.5875   3.6439
     3.6560   3.6904   3.6906   3.7219   3.7276   3.7837   3.8057   3.8242
     3.9555   3.9671   3.9875   4.0039   4.0048   4.0162   4.0171   4.0567
     4.0933   4.1118   4.1377   4.1737   4.1740   4.2337   4.2473   4.2660
     4.2989   4.3004   4.3254   4.3403   4.3735   4.3771   4.3985   4.4039
     4.4985   4.4996   4.5229   4.5331   4.5406   4.5441   4.5647   4.6123
     4.6665   4.7981   4.7989   4.8185   4.8240   4.8323   4.8393   4.8448
     4.8921   4.9121   4.9794   4.9934   5.0610   5.0826   5.1003   5.1029
     5.1164   5.2128   5.2281   5.2522   5.2546   5.2856   5.3251   5.3613
     5.3732   5.3743   5.3914   5.4211   5.4451   5.4545   5.4787   5.5211
     5.5378   5.5541   5.5715   5.6488   5.6617   5.6677   5.6733   5.6738
     5.7082   5.7142   5.7158   5.7191   5.7335   5.7961   5.8018   5.8130
     5.8165   5.8282   5.8517   5.8601   5.8672   5.9056   5.9145   5.9690
     5.9695   5.9793   6.0035   6.0123   6.0324   6.0382   6.0464   6.1161
     6.1177   6.1193   6.1513   6.1541   6.1759   6.2067   6.2300   6.2402
     6.2771   6.2861   6.3090   6.3119   6.3690   6.3976   6.4054   6.4379
     6.4404   6.4410   6.5045   6.5047   6.5339   6.5575   6.5894   6.6096
     6.6121   6.6235   6.6517   6.6647   6.6729   6.7340   6.7867   6.7913

          k =-0.2500 0.1443 0.0000 (108355 PWs)   bands (ev):

   -67.0704 -67.0463 -67.0371 -67.0366 -67.0202 -67.0190 -67.0184 -67.0124
   -67.0037 -67.0021 -67.0015 -66.9980 -66.9976 -66.9967 -66.9913 -66.9900
   -66.9876 -66.9861 -66.9832 -66.9788 -66.9772 -66.9764 -66.9741 -66.9731
   -66.8184 -66.8007 -66.7940 -66.7939 -66.7808 -66.7807 -66.7765 -66.7696
   -66.7696 -66.7670 -66.7631 -66.7626 -66.7277 -66.7085 -66.6996 -66.6977
   -66.6822 -66.6723 -66.6611 -66.6587 -66.6574 -66.6546 -66.6511 -66.6491
   -38.8745 -38.8547 -38.8464 -38.8452 -38.7436 -38.7432 -38.7425 -38.7167
   -38.7077 -38.6996 -38.6993 -38.6969 -38.6702 -38.6552 -38.6410 -38.6380
   -38.6106 -38.6088 -38.5993 -38.5899 -38.5859 -38.5848 -38.5785 -38.5563
   -38.5403 -38.5393 -38.5382 -38.5166 -38.4564 -38.4560 -38.4511 -38.4465
   -38.4434 -38.4367 -38.4363 -38.4351 -38.4299 -38.4226 -38.4059 -38.4022
   -38.4015 -38.3930 -38.3867 -38.3863 -38.3626 -38.3558 -38.3437 -38.3413
   -38.3406 -38.3397 -38.3391 -38.3388 -38.3333 -38.3281 -38.3262 -38.3225
   -38.3197 -38.3188 -38.3109 -38.3072 -38.3064 -38.3001 -38.2921 -38.2891
   -38.2856 -38.2836 -38.2828 -38.2714 -38.2662 -38.2660 -38.2655 -38.2367
   -38.2325 -38.2300 -38.2280 -38.2263 -38.2203 -38.2152 -38.2152 -38.2021
   -38.1994 -38.1951 -38.1945 -38.1791 -38.1715 -38.1711 -38.1652 -38.1580
   -38.1557 -38.1465 -38.1443 -38.1341 -38.1295 -38.1260 -38.1242 -38.1168
   -38.1141 -38.1047 -38.1031 -38.1003 -38.0993 -38.0841 -38.0826 -38.0792
   -38.0479 -38.0437 -38.0411 -38.0338 -38.0330 -38.0306 -38.0202 -38.0201
   -38.0182 -38.0157 -38.0149 -37.9989 -37.9971 -37.9941 -37.9935 -37.9869
   -37.9857 -37.9758 -37.9755 -37.9716 -37.9454 -37.9417 -37.9415 -37.9327
   -37.9325 -37.9297 -37.9193 -37.9119 -37.9014 -37.8899 -37.8838 -37.8833
   -37.7738 -37.7720 -37.7668 -37.7491 -37.7463 -37.7453 -37.7361 -37.7313
   -12.5113 -12.0842 -12.0626 -11.9276 -11.9273 -11.7959 -11.7088 -11.7079
   -11.6338 -11.6332 -11.5540 -11.4077 -11.4070 -11.3593 -11.3395 -11.3391
   -11.3282 -11.2747 -11.1094 -11.0895  -8.7844  -8.7844  -8.7730  -8.7323
    -7.8248  -3.0442  -3.0428  -3.0028  -2.8904  -2.8197  -2.8073  -2.7812
    -2.7792  -2.7770  -2.6623  -2.6604  -2.5122  -2.4720  -2.4256  -2.4210
    -2.4205  -2.3617  -2.3093  -2.2787  -2.2768  -2.2315  -2.0318  -1.8439
    -1.8403  -1.7984  -1.7066  -1.7044  -1.6501  -1.5554  -1.5549  -1.5127
    -1.4956  -1.4661  -1.4644  -1.4418  -1.3962  -1.3949  -1.3851  -1.3286
    -1.3272  -1.3105  -1.1970  -1.1554  -1.1380  -1.0891  -1.0350  -0.9816
    -0.9723  -0.9679  -0.9200  -0.9082  -0.9071  -0.8782  -0.8509  -0.7995
    -0.7456  -0.7269  -0.6793  -0.5744  -0.5345  -0.5336  -0.0890  -0.0735
     0.7051   1.1146   1.1463   1.1464   1.3855   1.3856   1.3954   1.3979
     1.4626   1.4809   1.4813   1.5004   1.5621   1.6008   1.6016   1.6151
     1.7163   1.7188   1.7624   2.0016   2.0022   2.0462   2.0958   2.0981
     2.1509   2.2030   2.2380   2.2395   2.2632   2.3608   2.3621   2.3795
     2.3899   2.3915   2.4548   2.4850   2.4861   2.5048   2.5261   2.5549
     2.6579   2.7380   2.7389   2.8019   2.9554   3.0046   3.0691   3.1380
     3.1394   3.1693   3.1753   3.2029   3.2998   3.3023   3.3286   3.3356
     3.3359   3.3784   3.4551   3.5229   3.5380   3.5468   3.5786   3.6273
     3.6376   3.6516   3.6598   3.6680   3.7147   3.7189   3.7208   3.8034
     3.9327   3.9442   3.9572   3.9613   3.9738   3.9815   3.9947   4.0811
     4.1093   4.1217   4.1806   4.1884   4.2139   4.2345   4.2372   4.2445
     4.2739   4.2990   4.3176   4.3192   4.3385   4.4181   4.4243   4.4333
     4.4410   4.5001   4.5109   4.6048   4.6332   4.6735   4.6760   4.7049
     4.7134   4.7244   4.7746   4.7819   4.8188   4.8625   4.8779   4.8812
     4.9141   4.9223   4.9418   5.0026   5.0323   5.0740   5.0807   5.1239
     5.1342   5.1696   5.2085   5.2374   5.2679   5.2947   5.3029   5.3856
     5.4052   5.4079   5.4082   5.4600   5.4856   5.4888   5.4977   5.5125
     5.5133   5.6126   5.6415   5.6670   5.6796   5.6913   5.6963   5.6984
     5.7044   5.7486   5.7520   5.7681   5.7743   5.8177   5.8276   5.8295
     5.8334   5.8763   5.8930   5.9043   5.9092   5.9177   5.9513   5.9575
     5.9605   5.9737   5.9830   5.9856   5.9988   6.0006   6.0303   6.1186
     6.1411   6.1453   6.1652   6.1862   6.1901   6.1947   6.1955   6.2501
     6.2531   6.2540   6.2556   6.3049   6.3352   6.3405   6.3433   6.3916
     6.4047   6.4100   6.4741   6.4760   6.4912   6.4966   6.5884   6.5930
     6.6127   6.6287   6.6378   6.6570   6.6788   6.6883   6.7370   6.7400

          k = 0.2500 0.1443 0.0000 (108355 PWs)   bands (ev):

   -67.0704 -67.0463 -67.0369 -67.0368 -67.0202 -67.0188 -67.0186 -67.0124
   -67.0036 -67.0019 -67.0016 -66.9978 -66.9976 -66.9972 -66.9911 -66.9902
   -66.9869 -66.9865 -66.9832 -66.9786 -66.9780 -66.9759 -66.9742 -66.9730
   -66.8184 -66.8007 -66.7942 -66.7937 -66.7810 -66.7804 -66.7765 -66.7699
   -66.7694 -66.7670 -66.7631 -66.7626 -66.7277 -66.7083 -66.6998 -66.6975
   -66.6829 -66.6718 -66.6615 -66.6581 -66.6574 -66.6550 -66.6505 -66.6496
   -38.8745 -38.8547 -38.8465 -38.8451 -38.7439 -38.7430 -38.7424 -38.7169
   -38.7075 -38.6997 -38.6993 -38.6967 -38.6702 -38.6550 -38.6409 -38.6385
   -38.6105 -38.6088 -38.5993 -38.5897 -38.5864 -38.5846 -38.5787 -38.5562
   -38.5400 -38.5397 -38.5379 -38.5165 -38.4570 -38.4559 -38.4510 -38.4465
   -38.4431 -38.4369 -38.4363 -38.4350 -38.4300 -38.4224 -38.4062 -38.4023
   -38.4014 -38.3926 -38.3873 -38.3863 -38.3627 -38.3560 -38.3434 -38.3412
   -38.3405 -38.3396 -38.3389 -38.3387 -38.3338 -38.3271 -38.3260 -38.3222
   -38.3197 -38.3188 -38.3120 -38.3071 -38.3068 -38.3007 -38.2916 -38.2893
   -38.2850 -38.2833 -38.2827 -38.2719 -38.2671 -38.2657 -38.2652 -38.2352
   -38.2315 -38.2304 -38.2280 -38.2276 -38.2209 -38.2155 -38.2150 -38.2021
   -38.1995 -38.1951 -38.1941 -38.1795 -38.1734 -38.1715 -38.1613 -38.1582
   -38.1553 -38.1485 -38.1448 -38.1339 -38.1297 -38.1258 -38.1239 -38.1161
   -38.1148 -38.1053 -38.1027 -38.1009 -38.0992 -38.0836 -38.0824 -38.0793
   -38.0479 -38.0435 -38.0415 -38.0332 -38.0332 -38.0308 -38.0212 -38.0188
   -38.0171 -38.0163 -38.0144 -37.9989 -37.9978 -37.9944 -37.9936 -37.9871
   -37.9854 -37.9757 -37.9756 -37.9717 -37.9455 -37.9416 -37.9414 -37.9331
   -37.9324 -37.9296 -37.9194 -37.9118 -37.9015 -37.8898 -37.8839 -37.8833
   -37.7734 -37.7724 -37.7666 -37.7499 -37.7475 -37.7437 -37.7374 -37.7300
   -12.5113 -12.0842 -12.0626 -11.9280 -11.9269 -11.7959 -11.7095 -11.7072
   -11.6344 -11.6327 -11.5540 -11.4085 -11.4062 -11.3593 -11.3401 -11.3385
   -11.3284 -11.2748 -11.1094 -11.0895  -8.7844  -8.7844  -8.7730  -8.7323
    -7.8248  -3.0443  -3.0427  -3.0023  -2.8905  -2.8195  -2.8075  -2.7824
    -2.7788  -2.7772  -2.6624  -2.6604  -2.5107  -2.4713  -2.4258  -2.4209
    -2.4203  -2.3620  -2.3096  -2.2802  -2.2770  -2.2318  -2.0319  -1.8423
    -1.8405  -1.7980  -1.7078  -1.7040  -1.6488  -1.5560  -1.5551  -1.5130
    -1.4957  -1.4674  -1.4647  -1.4415  -1.3967  -1.3954  -1.3833  -1.3276
    -1.3262  -1.3110  -1.1970  -1.1555  -1.1368  -1.0890  -1.0378  -0.9817
    -0.9730  -0.9674  -0.9147  -0.9098  -0.9066  -0.8785  -0.8510  -0.8089
    -0.7387  -0.7276  -0.6754  -0.5785  -0.5348  -0.5332  -0.0889  -0.0737
     0.7053   1.1146   1.1463   1.1465   1.3856   1.3857   1.3955   1.3978
     1.4624   1.4809   1.4815   1.5005   1.5620   1.6009   1.6026   1.6149
     1.7173   1.7188   1.7618   2.0017   2.0024   2.0456   2.0967   2.0982
     2.1507   2.2034   2.2370   2.2390   2.2632   2.3610   2.3630   2.3793
     2.3909   2.3918   2.4535   2.4848   2.4856   2.5050   2.5261   2.5553
     2.6582   2.7383   2.7388   2.8010   2.9542   3.0050   3.0681   3.1380
     3.1387   3.1694   3.1752   3.2023   3.3003   3.3027   3.3287   3.3355
     3.3361   3.3776   3.4540   3.5309   3.5377   3.5476   3.5775   3.6207
     3.6398   3.6495   3.6570   3.6685   3.7160   3.7186   3.7213   3.8036
     3.9273   3.9461   3.9567   3.9634   3.9764   3.9812   3.9944   4.0870
     4.1108   4.1176   4.1809   4.1847   4.2141   4.2374   4.2440   4.2469
     4.2732   4.2980   4.3177   4.3186   4.3410   4.4175   4.4236   4.4309
     4.4366   4.5035   4.5121   4.6087   4.6283   4.6584   4.6803   4.7054
     4.7205   4.7244   4.7741   4.7880   4.8205   4.8674   4.8772   4.8796
     4.9106   4.9148   4.9415   5.0030   5.0229   5.0758   5.0827   5.1224
     5.1335   5.1716   5.2082   5.2379   5.2638   5.2952   5.3055   5.3883
     5.4052   5.4079   5.4086   5.4595   5.4862   5.4939   5.5004   5.5131
     5.5157   5.6165   5.6405   5.6455   5.6823   5.6898   5.6957   5.7002
     5.7125   5.7461   5.7505   5.7693   5.7744   5.8226   5.8270   5.8290
     5.8316   5.8748   5.8861   5.9044   5.9103   5.9156   5.9550   5.9581
     5.9619   5.9755   5.9818   5.9853   5.9993   6.0007   6.0317   6.1151
     6.1426   6.1456   6.1644   6.1887   6.1905   6.1925   6.1957   6.2448
     6.2520   6.2541   6.2564   6.3061   6.3372   6.3425   6.3473   6.3916
     6.4046   6.4077   6.4743   6.4772   6.4909   6.4972   6.5875   6.5926
     6.6119   6.6275   6.6386   6.6585   6.6788   6.6856   6.7385   6.7397

          k = 0.5000-0.2887 0.0000 (108310 PWs)   bands (ev):

   -67.0608 -67.0604 -67.0392 -67.0387 -67.0136 -67.0130 -67.0114 -67.0106
   -67.0077 -67.0073 -66.9999 -66.9992 -66.9992 -66.9981 -66.9942 -66.9940
   -66.9839 -66.9819 -66.9810 -66.9799 -66.9779 -66.9761 -66.9751 -66.9746
   -66.8111 -66.8111 -66.7954 -66.7954 -66.7759 -66.7758 -66.7731 -66.7731
   -66.7681 -66.7681 -66.7649 -66.7649 -66.7261 -66.7099 -66.7018 -66.6981
   -66.6808 -66.6711 -66.6600 -66.6577 -66.6556 -66.6546 -66.6545 -66.6498
   -38.8655 -38.8649 -38.8421 -38.8409 -38.7377 -38.7357 -38.7323 -38.7309
   -38.7080 -38.7063 -38.7038 -38.7024 -38.6693 -38.6685 -38.6433 -38.6399
   -38.6073 -38.6045 -38.5962 -38.5961 -38.5924 -38.5890 -38.5714 -38.5692
   -38.5331 -38.5320 -38.5208 -38.5201 -38.4658 -38.4653 -38.4428 -38.4420
   -38.4361 -38.4358 -38.4270 -38.4265 -38.4152 -38.4148 -38.4044 -38.4034
   -38.3988 -38.3982 -38.3898 -38.3889 -38.3772 -38.3763 -38.3457 -38.3433
   -38.3430 -38.3429 -38.3387 -38.3384 -38.3369 -38.3349 -38.3326 -38.3251
   -38.3192 -38.3190 -38.3172 -38.3110 -38.3093 -38.3088 -38.2869 -38.2855
   -38.2751 -38.2662 -38.2621 -38.2613 -38.2593 -38.2572 -38.2557 -38.2535
   -38.2461 -38.2397 -38.2379 -38.2361 -38.2116 -38.2077 -38.2068 -38.2059
   -38.2024 -38.2023 -38.1900 -38.1896 -38.1730 -38.1718 -38.1696 -38.1542
   -38.1520 -38.1461 -38.1375 -38.1336 -38.1307 -38.1272 -38.1199 -38.1198
   -38.1127 -38.1115 -38.0974 -38.0948 -38.0944 -38.0896 -38.0685 -38.0675
   -38.0574 -38.0562 -38.0455 -38.0431 -38.0321 -38.0310 -38.0194 -38.0163
   -38.0159 -38.0126 -38.0082 -38.0060 -37.9922 -37.9914 -37.9911 -37.9888
   -37.9787 -37.9782 -37.9778 -37.9773 -37.9432 -37.9429 -37.9388 -37.9388
   -37.9286 -37.9285 -37.9195 -37.9193 -37.8987 -37.8880 -37.8870 -37.8842
   -37.7721 -37.7656 -37.7607 -37.7543 -37.7470 -37.7459 -37.7407 -37.7344
   -12.3345 -12.3342 -11.9623 -11.9618 -11.9479 -11.9473 -11.7165 -11.7157
   -11.5461 -11.5457 -11.4209 -11.4208 -11.4076 -11.4066 -11.3837 -11.3836
   -11.2007 -11.2003 -11.1822 -11.1821  -8.7860  -8.7860  -8.7513  -8.7513
    -7.8248  -3.0097  -3.0056  -2.9155  -2.9145  -2.8494  -2.8488  -2.8448
    -2.8441  -2.7219  -2.7214  -2.6051  -2.6040  -2.4419  -2.4388  -2.3758
    -2.3747  -2.3210  -2.3183  -2.1973  -2.1923  -2.1105  -2.1094  -1.9177
    -1.9157  -1.7790  -1.7725  -1.7312  -1.7280  -1.6483  -1.6414  -1.5184
    -1.5181  -1.5114  -1.5109  -1.3938  -1.3884  -1.3390  -1.3374  -1.3218
    -1.3198  -1.2065  -1.2055  -1.1262  -1.1236  -1.1107  -1.1057  -0.9779
    -0.9760  -0.9299  -0.9293  -0.9163  -0.9100  -0.8106  -0.8077  -0.7790
    -0.7453  -0.6964  -0.6951  -0.6566  -0.5586  -0.5577  -0.0894  -0.0737
     0.9484   0.9488   1.1342   1.1343   1.3646   1.3647   1.3856   1.3859
     1.4616   1.4618   1.4779   1.4781   1.6199   1.6204   1.6294   1.6318
     1.8557   1.8579   1.8622   1.8635   2.0361   2.0374   2.0731   2.0758
     2.1663   2.1676   2.2977   2.2989   2.3213   2.3223   2.3531   2.3534
     2.3920   2.3931   2.4039   2.4065   2.5129   2.5153   2.6838   2.6884
     2.7399   2.7408   2.7598   2.7621   2.9577   2.9582   2.9765   2.9778
     3.0466   3.0469   3.1417   3.1441   3.2650   3.2654   3.3248   3.3284
     3.3594   3.3626   3.4567   3.4571   3.5513   3.5636   3.6105   3.6114
     3.6729   3.6778   3.7516   3.7563   3.8101   3.8195   3.8431   3.8481
     3.8791   3.8833   3.9051   3.9247   3.9428   3.9478   4.0635   4.0806
     4.0900   4.0930   4.2000   4.2233   4.2381   4.2603   4.2679   4.2845
     4.2903   4.3007   4.3020   4.3124   4.3795   4.3888   4.4050   4.4089
     4.4164   4.4205   4.5480   4.5495   4.5548   4.5766   4.6172   4.6177
     4.6368   4.6403   4.7486   4.7580   4.9253   4.9288   4.9322   4.9352
     4.9361   4.9603   5.0023   5.0321   5.0553   5.0575   5.0733   5.0810
     5.1219   5.1246   5.2027   5.2207   5.2818   5.2826   5.2941   5.2958
     5.3760   5.3769   5.4061   5.4268   5.4571   5.4635   5.5026   5.5168
     5.5276   5.5299   5.5358   5.5531   5.6447   5.6459   5.6818   5.6823
     5.6982   5.7048   5.7244   5.7377   5.7697   5.7880   5.8110   5.8157
     5.8306   5.8367   5.8483   5.8528   5.9119   5.9188   5.9410   5.9435
     5.9782   5.9893   6.0164   6.0411   6.0918   6.1014   6.1061   6.1145
     6.1169   6.1251   6.1301   6.1382   6.1503   6.1520   6.2796   6.2811
     6.2851   6.2896   6.3241   6.3290   6.3665   6.3673   6.3833   6.3860
     6.4015   6.4045   6.4332   6.4353   6.5536   6.5543   6.5605   6.5614
     6.5937   6.6011   6.6513   6.6616   6.7891   6.7938   6.7993   6.8047

          k =-0.5000-0.2887 0.0000 (108310 PWs)   bands (ev):

   -67.0606 -67.0606 -67.0391 -67.0389 -67.0135 -67.0132 -67.0110 -67.0110
   -67.0075 -67.0073 -66.9999 -66.9994 -66.9987 -66.9985 -66.9942 -66.9942
   -66.9826 -66.9822 -66.9813 -66.9807 -66.9773 -66.9769 -66.9747 -66.9746
   -66.8112 -66.8111 -66.7957 -66.7952 -66.7760 -66.7754 -66.7734 -66.7729
   -66.7684 -66.7679 -66.7650 -66.7648 -66.7263 -66.7093 -66.7020 -66.6981
   -66.6818 -66.6702 -66.6607 -66.6565 -66.6564 -66.6546 -66.6539 -66.6503
   -38.8656 -38.8649 -38.8422 -38.8408 -38.7374 -38.7357 -38.7323 -38.7314
   -38.7079 -38.7063 -38.7034 -38.7024 -38.6692 -38.6684 -38.6431 -38.6406
   -38.6069 -38.6045 -38.5968 -38.5962 -38.5918 -38.5895 -38.5710 -38.5694
   -38.5328 -38.5322 -38.5206 -38.5199 -38.4665 -38.4652 -38.4425 -38.4420
   -38.4362 -38.4359 -38.4270 -38.4264 -38.4154 -38.4147 -38.4041 -38.4036
   -38.3985 -38.3982 -38.3909 -38.3889 -38.3769 -38.3763 -38.3459 -38.3433
   -38.3431 -38.3428 -38.3387 -38.3383 -38.3367 -38.3347 -38.3307 -38.3251
   -38.3199 -38.3195 -38.3183 -38.3107 -38.3091 -38.3087 -38.2869 -38.2855
   -38.2736 -38.2664 -38.2639 -38.2609 -38.2592 -38.2572 -38.2556 -38.2538
   -38.2429 -38.2395 -38.2380 -38.2370 -38.2132 -38.2093 -38.2067 -38.2059
   -38.2028 -38.2026 -38.1896 -38.1885 -38.1759 -38.1728 -38.1618 -38.1555
   -38.1524 -38.1493 -38.1376 -38.1333 -38.1307 -38.1276 -38.1211 -38.1186
   -38.1127 -38.1113 -38.0983 -38.0954 -38.0924 -38.0890 -38.0695 -38.0678
   -38.0578 -38.0559 -38.0438 -38.0427 -38.0317 -38.0311 -38.0198 -38.0155
   -38.0139 -38.0129 -38.0089 -38.0069 -37.9942 -37.9913 -37.9907 -37.9885
   -37.9784 -37.9783 -37.9777 -37.9775 -37.9430 -37.9428 -37.9392 -37.9387
   -37.9290 -37.9283 -37.9194 -37.9192 -37.8988 -37.8887 -37.8858 -37.8846
   -37.7713 -37.7652 -37.7609 -37.7559 -37.7478 -37.7475 -37.7387 -37.7335
   -12.3348 -12.3339 -11.9626 -11.9614 -11.9486 -11.9467 -11.7172 -11.7150
   -11.5466 -11.5452 -11.4212 -11.4204 -11.4088 -11.4055 -11.3841 -11.3832
   -11.2019 -11.1992 -11.1822 -11.1821  -8.7860  -8.7860  -8.7513  -8.7513
    -7.8248  -3.0089  -3.0058  -2.9156  -2.9145  -2.8497  -2.8479  -2.8459
    -2.8438  -2.7219  -2.7215  -2.6053  -2.6042  -2.4422  -2.4387  -2.3769
    -2.3735  -2.3224  -2.3181  -2.1959  -2.1924  -2.1109  -2.1096  -1.9165
    -1.9160  -1.7785  -1.7728  -1.7319  -1.7280  -1.6451  -1.6412  -1.5201
    -1.5180  -1.5151  -1.5104  -1.3917  -1.3881  -1.3385  -1.3374  -1.3219
    -1.3200  -1.2062  -1.2052  -1.1245  -1.1234  -1.1093  -1.1055  -0.9801
    -0.9760  -0.9361  -0.9294  -0.9193  -0.9099  -0.8154  -0.8072  -0.7536
    -0.7454  -0.7055  -0.6959  -0.6633  -0.5585  -0.5565  -0.0891  -0.0741
     0.9481   0.9494   1.1342   1.1345   1.3642   1.3650   1.3858   1.3861
     1.4616   1.4617   1.4779   1.4781   1.6195   1.6204   1.6296   1.6341
     1.8559   1.8580   1.8630   1.8638   2.0348   2.0377   2.0735   2.0758
     2.1657   2.1671   2.2977   2.2987   2.3213   2.3218   2.3535   2.3538
     2.3920   2.3937   2.4049   2.4068   2.5132   2.5154   2.6815   2.6874
     2.7382   2.7412   2.7600   2.7629   2.9548   2.9578   2.9759   2.9768
     3.0464   3.0468   3.1412   3.1478   3.2646   3.2660   3.3267   3.3274
     3.3602   3.3621   3.4564   3.4585   3.5575   3.5632   3.6097   3.6108
     3.6734   3.6773   3.7506   3.7560   3.8068   3.8096   3.8445   3.8476
     3.8813   3.8815   3.9081   3.9206   3.9398   3.9462   4.0682   4.0820
     4.0878   4.0921   4.2152   4.2232   4.2305   4.2591   4.2713   4.2836
     4.2971   4.2997   4.3008   4.3171   4.3791   4.4002   4.4087   4.4127
     4.4166   4.4202   4.5451   4.5484   4.5495   4.5681   4.6167   4.6178
     4.6364   4.6368   4.7486   4.7650   4.9251   4.9292   4.9316   4.9342
     4.9366   4.9552   4.9999   5.0126   5.0552   5.0577   5.0741   5.0768
     5.1233   5.1255   5.2072   5.2334   5.2812   5.2824   5.2937   5.2960
     5.3755   5.3770   5.4047   5.4267   5.4611   5.4630   5.5021   5.5162
     5.5261   5.5306   5.5360   5.5647   5.6438   5.6468   5.6832   5.6839
     5.7017   5.7058   5.7120   5.7256   5.7786   5.7857   5.8125   5.8164
     5.8253   5.8362   5.8500   5.8529   5.9022   5.9211   5.9419   5.9433
     5.9781   5.9905   6.0162   6.0321   6.0938   6.1010   6.1088   6.1160
     6.1163   6.1229   6.1336   6.1379   6.1483   6.1519   6.2809   6.2822
     6.2849   6.2922   6.3262   6.3285   6.3648   6.3679   6.3842   6.3865
     6.4011   6.4060   6.4347   6.4351   6.5530   6.5568   6.5603   6.5612
     6.5941   6.5999   6.6513   6.6534   6.7948   6.7999   6.8047   6.8875

          k =-0.2500 0.4330 0.0000 (108308 PWs)   bands (ev):

   -67.0638 -67.0518 -67.0517 -67.0280 -67.0198 -67.0155 -67.0103 -67.0074
   -67.0072 -67.0052 -67.0050 -66.9991 -66.9988 -66.9957 -66.9941 -66.9917
   -66.9877 -66.9823 -66.9799 -66.9795 -66.9770 -66.9765 -66.9754 -66.9745
   -66.8135 -66.8046 -66.8046 -66.7879 -66.7813 -66.7751 -66.7719 -66.7717
   -66.7681 -66.7676 -66.7657 -66.7649 -66.7263 -66.7087 -66.7040 -66.6967
   -66.6814 -66.6709 -66.6592 -66.6583 -66.6565 -66.6549 -66.6528 -66.6504
   -38.8678 -38.8564 -38.8554 -38.8337 -38.7379 -38.7377 -38.7322 -38.7275
   -38.7129 -38.7053 -38.7020 -38.7012 -38.6699 -38.6607 -38.6604 -38.6209
   -38.6149 -38.6032 -38.6029 -38.5975 -38.5959 -38.5788 -38.5772 -38.5640
   -38.5290 -38.5283 -38.5273 -38.5162 -38.4922 -38.4451 -38.4446 -38.4442
   -38.4360 -38.4323 -38.4228 -38.4205 -38.4197 -38.4136 -38.4133 -38.4046
   -38.3981 -38.3918 -38.3908 -38.3899 -38.3733 -38.3674 -38.3666 -38.3457
   -38.3447 -38.3413 -38.3403 -38.3362 -38.3320 -38.3292 -38.3260 -38.3257
   -38.3230 -38.3196 -38.3170 -38.3114 -38.3083 -38.3067 -38.3060 -38.2731
   -38.2726 -38.2678 -38.2667 -38.2599 -38.2585 -38.2570 -38.2545 -38.2476
   -38.2453 -38.2409 -38.2400 -38.2385 -38.2143 -38.2083 -38.2072 -38.2001
   -38.1986 -38.1973 -38.1963 -38.1921 -38.1862 -38.1685 -38.1586 -38.1566
   -38.1532 -38.1487 -38.1360 -38.1353 -38.1325 -38.1270 -38.1259 -38.1210
   -38.1121 -38.1011 -38.0998 -38.0962 -38.0915 -38.0783 -38.0774 -38.0730
   -38.0583 -38.0473 -38.0459 -38.0418 -38.0331 -38.0300 -38.0234 -38.0184
   -38.0163 -38.0116 -38.0106 -38.0053 -37.9930 -37.9906 -37.9904 -37.9869
   -37.9829 -37.9811 -37.9731 -37.9727 -37.9477 -37.9471 -37.9359 -37.9348
   -37.9332 -37.9239 -37.9237 -37.9161 -37.8990 -37.8888 -37.8853 -37.8849
   -37.7692 -37.7677 -37.7618 -37.7555 -37.7498 -37.7422 -37.7408 -37.7339
   -12.3911 -12.1781 -12.1773 -11.9839 -11.8501 -11.8482 -11.8005 -11.6329
   -11.6073 -11.4969 -11.4780 -11.4772 -11.4617 -11.3968 -11.2857 -11.2830
   -11.2625 -11.2619 -11.1729 -11.1544  -8.7946  -8.7672  -8.7672  -8.7456
    -7.8248  -3.0585  -2.9608  -2.9587  -2.9427  -2.8313  -2.8298  -2.7886
    -2.7538  -2.7021  -2.6887  -2.6662  -2.6647  -2.6203  -2.4293  -2.2973
    -2.2931  -2.2815  -2.2578  -2.2042  -2.2016  -2.1600  -2.1575  -2.0311
    -1.8562  -1.8487  -1.7693  -1.7419  -1.6544  -1.6022  -1.5990  -1.5218
    -1.4975  -1.4783  -1.4494  -1.4449  -1.4407  -1.4396  -1.3801  -1.2617
    -1.2612  -1.2168  -1.2157  -1.1944  -1.1481  -1.0358  -1.0107  -1.0095
    -0.9567  -0.9466  -0.9384  -0.9186  -0.8879  -0.8829  -0.8290  -0.8279
    -0.7396  -0.6880  -0.6364  -0.6266  -0.6154  -0.5295  -0.0893  -0.0739
     0.8820   1.0659   1.0663   1.1669   1.3511   1.3674   1.3679   1.3701
     1.4137   1.4951   1.4952   1.5223   1.5883   1.6072   1.6081   1.6649
     1.7834   1.9019   1.9029   1.9908   1.9919   2.0550   2.0562   2.1140
     2.1210   2.1820   2.1833   2.2150   2.2891   2.2945   2.3298   2.3302
     2.3814   2.4307   2.4976   2.5229   2.5249   2.6076   2.6094   2.7250
     2.7273   2.7309   2.7627   2.7675   2.8654   2.8687   2.8703   2.9360
     3.1177   3.1809   3.2251   3.2286   3.2726   3.2732   3.2791   3.3659
     3.3702   3.3714   3.3880   3.4956   3.5158   3.5163   3.5859   3.6434
     3.6567   3.6896   3.6939   3.7246   3.7266   3.7834   3.8058   3.8219
     3.9647   3.9704   3.9873   4.0010   4.0059   4.0131   4.0193   4.0541
     4.0798   4.1133   4.1364   4.1733   4.1798   4.2303   4.2403   4.2655
     4.2959   4.3006   4.3350   4.3393   4.3691   4.3780   4.3998   4.4056
     4.4980   4.5000   4.5228   4.5332   4.5401   4.5429   4.5647   4.6121
     4.6665   4.7978   4.7989   4.8196   4.8234   4.8317   4.8445   4.8456
     4.8922   4.9208   4.9790   4.9962   5.0594   5.0738   5.0996   5.1040
     5.1204   5.2131   5.2295   5.2518   5.2601   5.2848   5.3196   5.3625
     5.3734   5.3742   5.3897   5.4208   5.4457   5.4520   5.4647   5.5234
     5.5374   5.5605   5.5693   5.6492   5.6633   5.6683   5.6728   5.6783
     5.7112   5.7134   5.7153   5.7193   5.7345   5.7964   5.8057   5.8130
     5.8148   5.8301   5.8400   5.8630   5.8677   5.9060   5.9153   5.9674
     5.9721   5.9791   6.0071   6.0122   6.0326   6.0417   6.0465   6.1101
     6.1168   6.1196   6.1512   6.1570   6.1763   6.2085   6.2282   6.2366
     6.2772   6.2868   6.3094   6.3160   6.3700   6.4001   6.4024   6.4379
     6.4400   6.4408   6.5029   6.5044   6.5334   6.5562   6.5904   6.6103
     6.6138   6.6196   6.6538   6.6649   6.6686   6.7354   6.7883   6.7932

          k = 0.5000-0.0000 0.0000 (108308 PWs)   bands (ev):

   -67.0638 -67.0518 -67.0517 -67.0280 -67.0198 -67.0155 -67.0103 -67.0074
   -67.0072 -67.0052 -67.0050 -66.9991 -66.9988 -66.9957 -66.9941 -66.9917
   -66.9877 -66.9823 -66.9799 -66.9795 -66.9770 -66.9765 -66.9754 -66.9745
   -66.8135 -66.8046 -66.8046 -66.7879 -66.7813 -66.7751 -66.7719 -66.7717
   -66.7681 -66.7676 -66.7657 -66.7649 -66.7263 -66.7087 -66.7040 -66.6967
   -66.6814 -66.6709 -66.6592 -66.6583 -66.6565 -66.6549 -66.6528 -66.6504
   -38.8678 -38.8564 -38.8554 -38.8337 -38.7379 -38.7377 -38.7322 -38.7275
   -38.7129 -38.7053 -38.7020 -38.7012 -38.6699 -38.6607 -38.6604 -38.6209
   -38.6149 -38.6032 -38.6029 -38.5975 -38.5959 -38.5788 -38.5772 -38.5640
   -38.5290 -38.5283 -38.5273 -38.5162 -38.4922 -38.4451 -38.4446 -38.4442
   -38.4359 -38.4323 -38.4228 -38.4205 -38.4197 -38.4136 -38.4133 -38.4046
   -38.3981 -38.3918 -38.3908 -38.3899 -38.3733 -38.3674 -38.3666 -38.3457
   -38.3447 -38.3413 -38.3403 -38.3362 -38.3320 -38.3292 -38.3260 -38.3257
   -38.3230 -38.3196 -38.3170 -38.3114 -38.3083 -38.3067 -38.3060 -38.2731
[...]
     6.5852   6.6287   6.6554   6.6599   6.6680   6.7277   6.7806   6.7844

          k = 0.5000-0.0000 0.0000 (108308 PWs)   bands (ev):

   -67.0783 -67.0668 -67.0664 -67.0437 -67.0360 -67.0273 -67.0271 -67.0225
   -67.0221 -67.0189 -67.0187 -67.0169 -67.0166 -67.0136 -67.0125 -67.0025
   -66.9980 -66.9922 -66.9894 -66.9889 -66.9859 -66.9858 -66.9838 -66.9834
   -66.8355 -66.8276 -66.8275 -66.8166 -66.7902 -66.7858 -66.7851 -66.7847
   -66.7800 -66.7799 -66.7791 -66.7773 -66.7305 -66.7237 -66.7218 -66.7135
   -66.6808 -66.6790 -66.6748 -66.6735 -66.6701 -66.6699 -66.6685 -66.6669
   -38.8703 -38.8579 -38.8572 -38.8365 -38.7439 -38.7438 -38.7376 -38.7323
   -38.7208 -38.7175 -38.7164 -38.7161 -38.6820 -38.6693 -38.6692 -38.6323
   -38.6279 -38.6212 -38.6210 -38.6175 -38.6066 -38.6026 -38.6023 -38.5976
   -38.5421 -38.5412 -38.5411 -38.5351 -38.5264 -38.5187 -38.5179 -38.5174
   -38.5046 -38.4448 -38.4420 -38.4409 -38.4404 -38.4276 -38.4271 -38.4159
   -38.4131 -38.4090 -38.4086 -38.4040 -38.3884 -38.3806 -38.3798 -38.3758
   -38.3757 -38.3715 -38.3686 -38.3662 -38.3566 -38.3562 -38.3500 -38.3482
   -38.3410 -38.3395 -38.3337 -38.3240 -38.3233 -38.3191 -38.3187 -38.2908
   -38.2903 -38.2875 -38.2864 -38.2857 -38.2750 -38.2745 -38.2709 -38.2571
   -38.2554 -38.2539 -38.2536 -38.2508 -38.2301 -38.2237 -38.2232 -38.2151
   -38.2137 -38.2121 -38.2120 -38.2051 -38.2008 -38.1793 -38.1790 -38.1776
   -38.1513 -38.1496 -38.1428 -38.1422 -38.1374 -38.1364 -38.1337 -38.1332
   -38.1112 -38.1048 -38.0993 -38.0973 -38.0968 -38.0826 -38.0820 -38.0817
   -38.0653 -38.0502 -38.0481 -38.0463 -38.0354 -38.0348 -38.0279 -38.0272
   -38.0223 -38.0216 -38.0204 -38.0092 -38.0050 -38.0021 -38.0018 -38.0004
   -37.9983 -37.9975 -37.9924 -37.9922 -37.9542 -37.9539 -37.9483 -37.9428
   -37.9407 -37.9319 -37.9317 -37.9238 -37.9105 -37.9060 -37.9054 -37.9051
   -37.7799 -37.7789 -37.7762 -37.7670 -37.7632 -37.7534 -37.7531 -37.7466
   -12.3569 -12.1430 -12.1415 -11.9564 -11.8142 -11.8120 -11.7739 -11.6096
   -11.5329 -11.4699 -11.4510 -11.4505 -11.3905 -11.3785 -11.2642 -11.2579
   -11.1766 -11.1740 -11.1507 -11.0580  -9.3371  -9.2880  -9.2877  -9.2484
    -6.9984  -3.0341  -2.9308  -2.9293  -2.9113  -2.7968  -2.7964  -2.7466
    -2.7184  -2.6607  -2.6557  -2.6263  -2.6249  -2.5779  -2.4022  -2.2607
    -2.2541  -2.2536  -2.2050  -2.1674  -2.1657  -2.1200  -2.1179  -1.9911
    -1.8077  -1.8032  -1.7266  -1.7046  -1.6362  -1.5669  -1.5663  -1.4958
    -1.4470  -1.4424  -1.4163  -1.4155  -1.4113  -1.4006  -1.3371  -1.2213
    -1.2185  -1.1757  -1.1745  -1.1427  -1.0967  -0.9928  -0.9835  -0.9830
    -0.9283  -0.9161  -0.8920  -0.8777  -0.8634  -0.8617  -0.7684  -0.7625
    -0.6964  -0.5859  -0.5761  -0.5707  -0.4337   0.5013   0.5879   0.5883
     0.6674   0.7230   0.7233   0.7612   0.9574   0.9608   1.0056   1.0086
     1.0089   1.0672   1.0729   1.0743   1.2713   1.4106   1.4129   1.6130
     1.7680   1.8753   1.8760   1.9066   1.9777   1.9801   1.9919   1.9932
     2.0801   2.1593   2.1619   2.2284   2.3019   2.3025   2.3349   2.3381
     2.3783   2.4368   2.4934   2.5042   2.5073   2.5963   2.5968   2.6516
     2.7227   2.7239   2.7340   2.7598   2.8362   2.8375   2.8540   2.9408
     3.0830   3.1703   3.2153   3.2182   3.2620   3.2633   3.2830   3.3561
     3.3640   3.3655   3.3752   3.4658   3.4667   3.4815   3.5677   3.6344
     3.6397   3.6692   3.6733   3.7026   3.7059   3.7715   3.7747   3.7877
     3.9552   3.9568   3.9610   3.9855   3.9883   4.0022   4.0034   4.0375
     4.0653   4.1213   4.1370   4.1509   4.1544   4.2171   4.2201   4.2234
     4.2597   4.2633   4.3092   4.3363   4.3572   4.3589   4.3778   4.3807
     4.4734   4.4750   4.4972   4.5099   4.5184   4.5217   4.5350   4.5857
     4.6153   4.7571   4.7760   4.7779   4.8162   4.8195   4.8429   4.8535
     4.8799   4.9516   4.9659   4.9715   5.0494   5.0534   5.0927   5.1103
     5.1137   5.1764   5.2163   5.2414   5.2622   5.2656   5.2979   5.3458
     5.3620   5.3638   5.3696   5.4043   5.4151   5.4372   5.4393   5.5215
     5.5237   5.5286   5.5555   5.6502   5.6565   5.6573   5.6578   5.6708
     5.7017   5.7036   5.7057   5.7230   5.7375   5.7879   5.7910   5.7927
     5.8003   5.8133   5.8319   5.8484   5.8498   5.8861   5.9124   5.9590
     5.9610   5.9771   5.9962   6.0026   6.0256   6.0281   6.0468   6.1131
     6.1145   6.1303   6.1585   6.1597   6.1891   6.2190   6.2248   6.2416
     6.2778   6.2814   6.2869   6.2958   6.3813   6.3926   6.3949   6.4378
     6.4412   6.4426   6.4870   6.4883   6.5282   6.5675   6.5806   6.5843
     6.5852   6.6287   6.6554   6.6599   6.6680   6.7277   6.7806   6.7844

     the Fermi energy is     5.1192 ev

!    total energy              =  -12616.46601647 Ry
     total all-electron energy =   -103594.969823 Ry
     estimated scf accuracy    <          5.2E-11 Ry
     smearing contrib. (-TS)   =       0.00925032 Ry
     internal energy E=F+TS    =  -12616.47526679 Ry

     The total energy is F=E-TS. E is the sum of the following terms:
     one-electron contribution =  -66900.36283024 Ry
     hartree contribution      =   33561.86507735 Ry
     xc contribution           =   -1216.02109119 Ry
     ewald contribution        =   25700.40361639 Ry
     DFT-D3 Dispersion         =      -1.07819134 Ry
     one-center paw contrib.   =   -3761.28184776 Ry

     convergence has been achieved in  38 iterations

     negative rho (up, down):  1.564E-04 0.000E+00

     Forces acting on atoms (cartesian axes, Ry/au):

     atom    1 type  1   force =    -0.00014650    0.00003550    0.00036354
     atom    2 type  1   force =     0.00010366   -0.00010761    0.00036351
     atom    3 type  1   force =    -0.00009233   -0.00016051    0.00026224
     atom    4 type  1   force =    -0.00006399   -0.00011206    0.00035065
     atom    5 type  1   force =     0.00002361    0.00031418    0.00019779
     atom    6 type  1   force =     0.00026029    0.00017753    0.00019780
     atom    7 type  2   force =     0.00022810    0.00039504    0.00015047
     atom    8 type  2   force =     0.00007064    0.00007913   -0.00023448
     atom    9 type  2   force =     0.00003347    0.00010083   -0.00023469
     atom   10 type  1   force =     0.00034431   -0.00028319   -0.00026607
     atom   11 type  1   force =    -0.00041745    0.00015812   -0.00026600
     atom   12 type  1   force =     0.00008794    0.00015131   -0.00024926
     atom   13 type  1   force =     0.00001976    0.00003274    0.00001030
     atom   14 type  1   force =     0.00012753   -0.00017598   -0.00006359
     atom   15 type  1   force =    -0.00021627    0.00002282   -0.00006400
     atom   16 type  2   force =    -0.00024554   -0.00042543    0.00065560
     atom   17 type  2   force =    -0.00010733   -0.00003011   -0.00032302
     atom   18 type  2   force =     0.00002725   -0.00010754   -0.00032284
     atom   19 type  1   force =    -0.00017357   -0.00014696    0.00007314
     atom   20 type  1   force =     0.00018336    0.00021276    0.00027604
     atom   21 type  1   force =     0.00005302    0.00003520    0.00033527
     atom   22 type  1   force =    -0.00011073   -0.00013619   -0.00008118
     atom   23 type  1   force =     0.00004453   -0.00002870   -0.00011643
     atom   24 type  1   force =     0.00003599   -0.00008939    0.00025187
     atom   25 type  2   force =     0.00015129   -0.00011252   -0.00004051
     atom   26 type  2   force =    -0.00004648    0.00004741   -0.00061197
     atom   27 type  2   force =    -0.00004891   -0.00007753   -0.00068026
     atom   28 type  1   force =    -0.00013489   -0.00011702   -0.00017954
     atom   29 type  1   force =    -0.00028084   -0.00024203   -0.00036800
     atom   30 type  1   force =     0.00023186    0.00029408   -0.00027122
     atom   31 type  1   force =     0.00039484    0.00011172    0.00025492
     atom   32 type  1   force =    -0.00022746   -0.00012306    0.00023407
     atom   33 type  1   force =    -0.00005233    0.00026374    0.00025431
     atom   34 type  2   force =     0.00001404    0.00015263    0.00085477
     atom   35 type  2   force =     0.00026397    0.00011016    0.00000792
     atom   36 type  2   force =    -0.00002580    0.00007860   -0.00047461
     atom   37 type  1   force =     0.00009355    0.00026519    0.00027615
     atom   38 type  1   force =    -0.00003995   -0.00022389    0.00007311
     atom   39 type  1   force =     0.00000318    0.00006433    0.00033497
     atom   40 type  1   force =    -0.00006359   -0.00016408   -0.00008079
     atom   41 type  1   force =    -0.00009507   -0.00001314    0.00025264
     atom   42 type  1   force =    -0.00004718    0.00002518   -0.00011655
     atom   43 type  2   force =    -0.00017300    0.00007450   -0.00004072
     atom   44 type  2   force =    -0.00004237   -0.00008117   -0.00068030
     atom   45 type  2   force =     0.00006422   -0.00001637   -0.00061151
     atom   46 type  1   force =    -0.00006740   -0.00036433   -0.00036901
     atom   47 type  1   force =    -0.00003384   -0.00017466   -0.00017937
     atom   48 type  1   force =     0.00013817    0.00034957   -0.00027242
     atom   49 type  1   force =    -0.00010230    0.00039797    0.00025578
     atom   50 type  1   force =     0.00025493    0.00008780    0.00025532
     atom   51 type  1   force =     0.00000693   -0.00025681    0.00023435
     atom   52 type  2   force =     0.00012507    0.00008884    0.00085475
     atom   53 type  2   force =     0.00008092    0.00001708   -0.00047424
     atom   54 type  2   force =    -0.00003657    0.00028340    0.00000813
     atom   55 type  1   force =     0.00006073    0.00018268    0.00002326
     atom   56 type  1   force =     0.00012716    0.00014350    0.00002347
     atom   57 type  1   force =    -0.00007413   -0.00013018   -0.00018210
     atom   58 type  1   force =     0.00008934    0.00015425   -0.00014680
     atom   59 type  1   force =    -0.00010644    0.00004262   -0.00003986
     atom   60 type  1   force =     0.00009057   -0.00007144   -0.00003923
     atom   61 type  2   force =    -0.00012239   -0.00021189    0.00016390
     atom   62 type  2   force =     0.00000396    0.00002406   -0.00097686
     atom   63 type  2   force =     0.00001864    0.00001541   -0.00097722
     atom   64 type  1   force =    -0.00007639    0.00011690    0.00002555
     atom   65 type  1   force =     0.00013800   -0.00000856    0.00002446
     atom   66 type  1   force =    -0.00023488   -0.00040847   -0.00012031
     atom   67 type  1   force =    -0.00011505   -0.00020054    0.00037576
     atom   68 type  1   force =     0.00019833   -0.00015177    0.00029528
     atom   69 type  1   force =    -0.00022943    0.00009451    0.00029633
     atom   70 type  2   force =     0.00009407    0.00016246    0.00076966
     atom   71 type  2   force =    -0.00007186   -0.00016107    0.00027176
     atom   72 type  2   force =    -0.00010335   -0.00014272    0.00027186
     atom   73 type  3   force =    -0.00014686   -0.00025661   -0.00038897
     atom   74 type  4   force =     0.00009017    0.00015607   -0.00025966
     atom   75 type  4   force =    -0.00026752    0.00031524    0.00013357
     atom   76 type  4   force =    -0.00014274   -0.00024731    0.00035539
     atom   77 type  4   force =     0.00040530   -0.00007421    0.00013392

     Total force =     0.003806     Total SCF correction =     0.000042
     Energy error            =      3.6E-05 Ry
     Gradient error          =      9.8E-04 Ry/Bohr

     bfgs converged in  34 scf cycles and  33 bfgs steps
     (criteria: energy <  1.0E-04 Ry, force <  1.0E-03 Ry/Bohr)

     End of BFGS Geometry Optimization

     Final energy             =  -12616.4660164709 Ry

     File tmp/CH4-H13_Rot30_bridge_/CH4-H13_Rot30_bridge_.bfgs deleted, as requested
Begin final coordinates

ATOMIC_POSITIONS (angstrom)
Cr              -1.5901080240        2.7718027267        8.1753608725
Cr               3.1955083817        0.0088261016        8.1753613419
Cr               0.7837677098        1.3575210453        8.1746563996
Cr               1.6344346479        2.8309225403        6.0433929049
Cr              -0.7436711491        1.2945276161        6.0463283383
Cr               1.4929309946        0.0032251630        6.0463278689
N               -0.0003733386       -0.0006479973        5.0062168244
N                2.3779500525        1.3772472442        7.0290914636
N                0.0037578289        2.7479868055        7.0290926248
Cr              -1.6461729465        2.8614797475       12.4532795574
Cr               3.3012033604        0.0051104937       12.4532813477
Cr               0.7284525264        1.2617098647       12.4519370181
Cr               1.5980906456        2.7679671342       10.3790973773
Cr              -0.7766850369        1.3606154260       10.3760744238
Cr               1.5666741374        0.0076760894       10.3760744468
N                0.0066054807        0.0114379737        9.2614584127
N                2.3793517858        1.3785823274       11.5018359879
N                0.0042165667        2.7498662642       11.5018354188
Cr              -3.9662563182        6.8885388062        8.1802711163
Cr               0.8200336394        4.1169884260        8.1761522641
Cr              -1.5930912870        5.4696694727        8.1770612336
Cr              -0.7412486842        6.9434934576        6.0498354617
Cr              -3.1199248513        5.4129547897        6.0520736519
Cr              -0.8816534812        4.1218773888        6.0460201286
N               -2.3756624080        4.1227702992        5.0073148817
N                0.0037945519        5.4906461407        7.0367573925
N               -2.3712847222        6.8645818554        7.0367131751
Cr              -4.0187365197        6.9696704955       12.4519686835
Cr               0.9197834576        4.1246653955       12.4545331293
Cr              -1.6438796329        5.3823337287       12.4531683497
Cr              -0.7802551306        6.8830947842       10.3723340129
Cr              -3.1488346441        5.4749551156       10.3707395279
Cr              -0.8096054312        4.1178983538       10.3743293931
N               -2.3702118683        4.1187848785        9.2604899812
N                0.0011381818        5.4924249600       11.4932331581
N               -2.3722489271        6.8646828213       11.4963961615
Cr               3.1554033529        2.7686617604        8.1761519737
Cr               7.9487828107        0.0093914519        8.1802710539
Cr               5.5334208076        1.3551778648        8.1770615880
Cr               6.3838709070        2.8298068354        6.0498344606
Cr               4.0104786058        1.2974043290        6.0460186765
Cr               6.2477211767        0.0045426811        6.0520743587
N                4.7582573352        0.0040005545        5.0073156516
N                7.1305478913        1.3786983209        7.0367134004
N                4.7531456248        2.7486084212        7.0367549160
Cr               3.1121785834        2.8588848869       12.4545350256
Cr               8.0452891075        0.0045051826       12.4519667924
Cr               5.4831804138        1.2675229748       12.4531687247
Cr               6.3510671936        2.7658260606       10.3723332102
Cr               3.9710104118        1.3578093887       10.3743280907
Cr               6.3158716489        0.0105049430       10.3707390278
N                4.7520818365        0.0067279928        9.2604899377
N                7.1311194188        1.3779122121       11.4963957734
N                4.7560155275        2.7471980091       11.4932334126
Cr               0.7804762493        6.8838180286        8.1806052973
Cr               5.5713279291        4.1178207047        8.1806052035
Cr               3.1580374252        5.4698762223        8.1827143554
Cr               4.0075235337        6.9412297138        6.0542797675
Cr               1.6348619734        5.4142899244        6.0518602927
Cr               3.8714846033        4.1229759395        6.0518587320
N                2.3822071961        4.1261015105        5.0064832951
N                4.7553354593        5.4923221551        7.0442898437
N                2.3788270918        6.8643996256        7.0442913909
Cr               0.7337330368        6.9722119021       12.4482984058
Cr               5.6712528216        4.1215372799       12.4483007582
Cr               3.1150990827        5.3955025330       12.4455719791
Cr               3.9750793890        6.8850311232       10.3700710274
Cr               1.5954698087        5.4721063579       10.3718198976
Cr               3.9412528601        4.1177695022       10.3718183275
N                2.3768549766        4.1168293239        9.2612820257
N                4.7572849824        5.4923351418       11.4855399550
N                2.3778644621        6.8660928432       11.4855394907
C                1.9594596537        3.3939442299       16.3474621323
H                2.0382385040        3.5304853670       15.2586109061
H                2.4541069842        2.4567240889       16.6277039508
H                2.4466765070        4.2376750210       16.8491404480
H                0.9005012778        3.3538081562       16.6277948612
End final coordinates



     Writing all to output data dir tmp/CH4-H13_Rot30_bridge_/CH4-H13_Rot30_bridge_.save/ :
     XML data file, charge density, pseudopotentials, collected wavefunctions
 
     init_run     :     18.50s CPU     19.27s WALL (       1 calls)
     electrons    :  55889.64s CPU  57369.81s WALL (      34 calls)
     update_pot   :     41.61s CPU     43.44s WALL (      33 calls)
     forces       :    354.44s CPU    367.27s WALL (      34 calls)
     force_dftd3  :     16.48s CPU     16.98s WALL (      34 calls)

     Called by init_run:
     wfcinit      :     14.03s CPU     14.44s WALL (       1 calls)
     potinit      :      1.02s CPU      1.18s WALL (       1 calls)
     hinit0       :      0.35s CPU      0.39s WALL (       1 calls)

     Called by electrons:
     c_bands      :  46065.40s CPU  47010.54s WALL (    1395 calls)
     sum_band     :   7750.43s CPU   8026.32s WALL (    1395 calls)
     v_of_rho     :    797.13s CPU    855.22s WALL (    1415 calls)
     newd         :    610.46s CPU    788.29s WALL (    1415 calls)
     PAW_pot      :    519.57s CPU    526.52s WALL (    1448 calls)
     mix_rho      :    111.75s CPU    120.26s WALL (    1395 calls)
     energy_dftd3 :      4.00s CPU      4.03s WALL (      34 calls)

     Called by c_bands:
     init_us_2    :    793.90s CPU    804.40s WALL (    8574 calls)
     cegterg      :  43127.43s CPU  44047.78s WALL (    4185 calls)

     Called by *egterg:
     cdiaghg      :   1540.75s CPU   1557.93s WALL (   15105 calls)
     h_psi        :  21127.82s CPU  21528.66s WALL (   15249 calls)
     s_psi        :   4939.78s CPU   4989.01s WALL (   15249 calls)
     g_psi        :     94.08s CPU     95.27s WALL (   11061 calls)

     Called by h_psi:
     h_psi:calbec :   4985.28s CPU   5035.75s WALL (   15249 calls)
     vloc_psi     :  11016.60s CPU  11198.22s WALL (   15249 calls)
                                        0.00s GPU  (   15249 calls)
     add_vuspsi   :   4959.90s CPU   5009.91s WALL (   15249 calls)

     General routines
     calbec       :   7558.24s CPU   7633.84s WALL (   19941 calls)
     fft          :    631.13s CPU    682.50s WALL (   18748 calls)
     ffts         :      8.09s CPU      9.24s WALL (    2810 calls)
     fftw         :  10823.75s CPU  10993.57s WALL (10516090 calls)
     interpolate  :     45.23s CPU     50.23s WALL (    1415 calls)
 
     Parallel routines
 
     PWSCF        :     15h40m CPU     16h 5m WALL

 
   This run was terminated on:   4:17:50   3Jun2026            

=------------------------------------------------------------------------------=
   JOB DONE.
=------------------------------------------------------------------------------=
