
     Program PWSCF v.7.5 starts on  3Jun2026 at 13:19:29 

     This program is part of the open-source Quantum ESPRESSO suite
     for quantum simulation of materials; please cite
         "P. Giannozzi et al., J. Phys.:Condens. Matter 21 395502 (2009);
         "P. Giannozzi et al., J. Phys.:Condens. Matter 29 465901 (2017);
         "P. Giannozzi et al., J. Chem. Phys. 152 154105 (2020);
          URL http://www.quantum-espresso.org", 
     in publications or presentations arising from this work. More details at
     http://www.quantum-espresso.org/quote

     Parallel version (MPI & OpenMP), running on      64 processor cores
     Number of MPI processes:                64
     Threads/MPI process:                     1

     MPI processes distributed on     1 nodes
     375228 MiB available memory on the printing compute node when the environment starts
 
     Reading input from generated_inputs/adsorcion/pw-CH4-H13_Rot0_hollow_.in
Warning: card &CELL ignored

     Current dimensions of program PWSCF are:
     Max number of different atomic species (ntypx) = 10
     Max number of k-points (npk) =  40000
     Max angular momentum in pseudopotentials (lmaxx) =  4
     file Cr.pbe-spn-kjpaw_psl.1.0.0.UPF: wavefunction(s)  3S 3P 3D renormalized
     file N.pbe-n-kjpaw_psl.1.0.0.UPF: wavefunction(s)  2S renormalized
     file C.pbe-n-kjpaw_psl.1.0.0.UPF: wavefunction(s)  2S 2P renormalized
     file H.pbe-kjpaw_psl.1.0.0.UPF: wavefunction(s)  1S renormalized
 
     K-points division:     npool     =       4
     R & G space division:  proc/nbgrp/npool/nimage =      16
     Subspace diagonalization in iterative solution of the eigenvalue problem:
     one sub-group per band group will be used
     scalapack distributed-memory algorithm (size of sub-group:  4*  4 procs)

 
     Parallelization info
     --------------------
     sticks:   dense  smooth     PW     G-vecs:    dense   smooth      PW
     Min        1166     388    102               281408    54158    7274
     Max        1167     389    103               281417    54165    7281
     Sum       18661    6217   1639              4502593   866593  116429
 
     Using Slab Decomposition
 


     bravais-lattice index     =            0
     lattice parameter (alat)  =      17.9576  a.u.
     unit-cell volume          =   10952.5767 (a.u.)^3
     number of atoms/cell      =           77
     number of atomic types    =            4
     number of electrons       =       800.00
     number of Kohn-Sham states=          480
     kinetic-energy cutoff     =      70.0000  Ry
     charge density cutoff     =     840.0000  Ry
     scf convergence threshold =      1.0E-08
     mixing beta               =       0.2000
     number of iterations used =            8  plain     mixing
     energy convergence thresh.=      1.0E-04
     force convergence thresh. =      1.0E-03
     Exchange-correlation= SLA  PW   PBX  PBC
                           (   1   4   3   4   0   0   0)
     nstep                     =          200


     celldm(1)=  17.957575  celldm(2)=   0.000000  celldm(3)=   0.000000
     celldm(4)=   0.000000  celldm(5)=   0.000000  celldm(6)=   0.000000

     crystal axes: (cart. coord. in units of alat)
               a(1) = (   1.000000   0.000000   0.000000 )  
               a(2) = (  -0.500000   0.866025   0.000000 )  
               a(3) = (   0.000000   0.000000   2.183951 )  

     reciprocal axes: (cart. coord. in units 2 pi/alat)
               b(1) = (  1.000000  0.577351  0.000000 )  
               b(2) = (  0.000000  1.154701  0.000000 )  
               b(3) = (  0.000000  0.000000  0.457886 )  


     PseudoPot. # 1 for Cr read from file:
     pseudo/Cr.pbe-spn-kjpaw_psl.1.0.0.UPF
     MD5 check sum: 198f1a2427a48552563eee314eba32ba
     Pseudo is Projector augmented-wave + core cor, Zval = 14.0
     Generated using &quot;atomic&quot; code by A. Dal Corso  v.6.3
     Shape of augmentation charge: PSQ
     Using radial grid of 1183 points,  6 beta functions with: 
                l(1) =   0
                l(2) =   0
                l(3) =   1
                l(4) =   1
                l(5) =   2
                l(6) =   2
     Q(r) pseudized with 0 coefficients 


     PseudoPot. # 2 for N  read from file:
     pseudo/N.pbe-n-kjpaw_psl.1.0.0.UPF
     MD5 check sum: 14c48229446f9f2d411169a3abcbc3fa
     Pseudo is Projector augmented-wave + core cor, Zval =  5.0
     Generated using &quot;atomic&quot; code by A. Dal Corso  v.6.3
     Shape of augmentation charge: PSQ
     Using radial grid of 1085 points,  4 beta functions with: 
                l(1) =   0
                l(2) =   0
                l(3) =   1
                l(4) =   1
     Q(r) pseudized with 0 coefficients 


     PseudoPot. # 3 for C  read from file:
     pseudo/C.pbe-n-kjpaw_psl.1.0.0.UPF
     MD5 check sum: 5f16ad9a65e90284d1d834d4ab3b0f7d
     Pseudo is Projector augmented-wave + core cor, Zval =  4.0
     Generated using &quot;atomic&quot; code by A. Dal Corso  v.6.3
     Shape of augmentation charge: PSQ
     Using radial grid of 1073 points,  4 beta functions with: 
                l(1) =   0
                l(2) =   0
                l(3) =   1
                l(4) =   1
     Q(r) pseudized with 0 coefficients 


     PseudoPot. # 4 for H  read from file:
     pseudo/H.pbe-kjpaw_psl.1.0.0.UPF
     MD5 check sum: d81a744832360e4a8af0b0b5b123bc2a
     Pseudo is Projector augmented-wave, Zval =  1.0
     Generated using &quot;atomic&quot; code by A. Dal Corso  v.6.3MaX
     Shape of augmentation charge: PSQ
     Using radial grid of  929 points,  2 beta functions with: 
                l(1) =   0
                l(2) =   0
     Q(r) pseudized with 0 coefficients 


     atomic species   valence    mass     pseudopotential
     Cr               14.00    51.99610     Cr( 1.00)
     N                 5.00    14.00670     N ( 1.00)
     C                 4.00    12.01100     C ( 1.00)
     H                 1.00     1.00800     H ( 1.00)

     No symmetry found



   Cartesian axes

     site n.     atom                  positions (alat units)
         1        Cr     tau(   1) = (  -0.1681591   0.2912601   0.8673998  )
         2        Cr     tau(   2) = (   0.3363182   0.0000000   0.8673998  )
         3        Cr     tau(   3) = (   0.0818405   0.1417518   0.8673993  )
         4        Cr     tau(   4) = (   0.1684970   0.2918454   0.6425759  )
         5        Cr     tau(   5) = (  -0.0815030   0.1411673   0.6425759  )
         6        Cr     tau(   6) = (   0.1630059   0.0000000   0.6425759  )
         7        N      tau(   7) = (   0.0000000   0.0000000   0.5261641  )
         8        N      tau(   8) = (   0.2500000   0.1443376   0.7485579  )
         9        N      tau(   9) = (   0.0000000   0.2886752   0.7485579  )
        10        Cr     tau(  10) = (  -0.1730001   0.2996450   1.3148727  )
        11        Cr     tau(  11) = (   0.3460003   0.0000000   1.3148727  )
        12        Cr     tau(  12) = (   0.0770029   0.1333729   1.3148745  )
        13        Cr     tau(  13) = (   0.1677092   0.2904808   1.0968932  )
        14        Cr     tau(  14) = (  -0.0822901   0.1425306   1.0968938  )
        15        Cr     tau(  15) = (   0.1645802   0.0000000   1.0968938  )
        16        N      tau(  16) = (   0.0000000   0.0000000   0.9808490  )
        17        N      tau(  17) = (   0.2500004   0.1443372   1.2145625  )
        18        N      tau(  18) = (  -0.0000005   0.2886753   1.2145625  )
        19        Cr     tau(  19) = (  -0.4181595   0.7242736   0.8673993  )
        20        Cr     tau(  20) = (   0.0863184   0.4330126   0.8674001  )
        21        Cr     tau(  21) = (  -0.1681593   0.5747652   0.8674001  )
        22        Cr     tau(  22) = (  -0.0815030   0.7248581   0.6425759  )
        23        Cr     tau(  23) = (  -0.3315030   0.5741800   0.6425759  )
        24        Cr     tau(  24) = (  -0.0869941   0.4330127   0.6425759  )
        25        N      tau(  25) = (  -0.2500000   0.4330127   0.5261641  )
        26        N      tau(  26) = (   0.0000000   0.5773503   0.7485581  )
        27        N      tau(  27) = (  -0.2500000   0.7216878   0.7485579  )
        28        Cr     tau(  28) = (  -0.4229971   0.7326525   1.3148745  )
        29        Cr     tau(  29) = (   0.0959968   0.4330121   1.3148749  )
        30        Cr     tau(  30) = (  -0.1729989   0.5663837   1.3148749  )
        31        Cr     tau(  31) = (  -0.0822898   0.7234940   1.0968932  )
        32        Cr     tau(  32) = (  -0.3322908   0.5755446   1.0968932  )
        33        Cr     tau(  33) = (  -0.0854193   0.4330133   1.0968932  )
        34        N      tau(  34) = (  -0.2500001   0.4330128   0.9808490  )
        35        N      tau(  35) = (   0.0000000   0.5773503   1.2145635  )
        36        N      tau(  36) = (  -0.2499996   0.7216882   1.2145625  )
        37        Cr     tau(  37) = (   0.3318407   0.2912602   0.8674001  )
        38        Cr     tau(  38) = (   0.8363191   0.0000000   0.8673993  )
        39        Cr     tau(  39) = (   0.5818409   0.1417524   0.8674001  )
        40        Cr     tau(  40) = (   0.6684970   0.2918454   0.6425759  )
        41        Cr     tau(  41) = (   0.4184970   0.1411673   0.6425759  )
        42        Cr     tau(  42) = (   0.6630059   0.0000000   0.6425759  )
        43        N      tau(  43) = (   0.5000000   0.0000000   0.5261641  )
        44        N      tau(  44) = (   0.7500000   0.1443376   0.7485579  )
        45        N      tau(  45) = (   0.5000000   0.2886751   0.7485581  )
        46        Cr     tau(  46) = (   0.3270011   0.2996417   1.3148749  )
        47        Cr     tau(  47) = (   0.8459942   0.0000000   1.3148745  )
        48        Cr     tau(  48) = (   0.5770021   0.1333704   1.3148749  )
        49        Cr     tau(  49) = (   0.6677091   0.2904819   1.0968932  )
        50        Cr     tau(  50) = (   0.4177102   0.1425314   1.0968932  )
        51        Cr     tau(  51) = (   0.6645817   0.0000000   1.0968932  )
        52        N      tau(  52) = (   0.5000001   0.0000000   0.9808490  )
        53        N      tau(  53) = (   0.7500001   0.1443381   1.2145625  )
        54        N      tau(  54) = (   0.5000000   0.2886751   1.2145635  )
        55        Cr     tau(  55) = (   0.0818409   0.7242730   0.8674001  )
        56        Cr     tau(  56) = (   0.5863184   0.4330128   0.8674001  )
        57        Cr     tau(  57) = (   0.3318409   0.5747653   0.8673998  )
        58        Cr     tau(  58) = (   0.4184970   0.7248581   0.6425759  )
        59        Cr     tau(  59) = (   0.1684970   0.5741800   0.6425759  )
        60        Cr     tau(  60) = (   0.4130059   0.4330127   0.6425759  )
        61        N      tau(  61) = (   0.2500000   0.4330127   0.5261641  )
        62        N      tau(  62) = (   0.5000000   0.5773502   0.7485579  )
        63        N      tau(  63) = (   0.2500000   0.7216878   0.7485579  )
        64        Cr     tau(  64) = (   0.0770021   0.7326550   1.3148749  )
        65        Cr     tau(  65) = (   0.5959968   0.4330133   1.3148749  )
        66        Cr     tau(  66) = (   0.3269999   0.5663804   1.3148727  )
        67        Cr     tau(  67) = (   0.4177099   0.7234948   1.0968938  )
        68        Cr     tau(  68) = (   0.1677091   0.5755435   1.0968932  )
        69        Cr     tau(  69) = (   0.4145807   0.4330121   1.0968932  )
        70        N      tau(  70) = (   0.2499999   0.4330126   0.9808490  )
        71        N      tau(  71) = (   0.4999995   0.5773501   1.2145625  )
        72        N      tau(  72) = (   0.2500001   0.7216873   1.2145625  )
        73        C      tau(  73) = (   0.2499993   0.4330114   1.6400436  )
        74        H      tau(  74) = (   0.2499993   0.4329926   1.5253419  )
        75        H      tau(  75) = (   0.2499993   0.3248759   1.6782951  )
        76        H      tau(  76) = (   0.3436527   0.4870885   1.6782686  )
        77        H      tau(  77) = (   0.1563458   0.4870885   1.6782686  )

     --------------------------------------------
     DFT-D3 Dispersion Correction (3-body terms):
     --------------------------------------------
       Reference C6 values for interpolation: 

         atom   Coordination number   C6
         H          0.912             6.05
         H          0.000            15.18
         C          0.000            98.23
         C          0.987            86.49
         C          1.998            58.72
         C          2.999            51.56
         C          3.984            36.41
         N          0.000            50.54
         N          0.994            44.25
         N          2.014            39.35
         N          2.990            31.16
         Cr         0.000          1381.48
         Cr         1.827           571.38
         Cr        10.619           306.69

       Values used:

         atom   Coordination number  R0_AB[au]  C6      C8
         Cr        12.627            3.252    306.69  28303.74
         Cr        12.627            3.252    306.69  28303.74
         Cr        12.627            3.252    306.69  28303.74
         Cr        10.143            3.252    306.69  28303.74
         Cr        10.143            3.252    306.69  28303.74
         Cr        10.143            3.252    306.69  28303.74
         N          3.022            2.478     31.29    690.36
         N          6.023            2.478     31.16    687.49
         N          6.023            2.478     31.16    687.49
         Cr         9.071            3.252    306.69  28303.74
         Cr         9.071            3.252    306.69  28303.74
         Cr         9.072            3.252    306.69  28303.74
         Cr        12.748            3.252    306.69  28303.74
         Cr        12.747            3.252    306.69  28303.74
         Cr        12.748            3.252    306.69  28303.74
         N          6.047            2.478     31.16    687.49
         N          6.032            2.478     31.16    687.49
         N          6.032            2.478     31.16    687.49
         Cr        12.627            3.252    306.69  28303.74
         Cr        12.627            3.252    306.69  28303.74
         Cr        12.627            3.252    306.69  28303.74
         Cr        10.143            3.252    306.69  28303.74
         Cr        10.143            3.252    306.69  28303.74
         Cr        10.143            3.252    306.69  28303.74
         N          3.022            2.478     31.29    690.36
         N          6.023            2.478     31.16    687.49
         N          6.023            2.478     31.16    687.49
         Cr         9.071            3.252    306.69  28303.74
         Cr         9.105            3.252    306.69  28303.74
         Cr         9.071            3.252    306.69  28303.74
         Cr        12.748            3.252    306.69  28303.74
         Cr        12.748            3.252    306.69  28303.74
         Cr        12.748            3.252    306.69  28303.74
         N          6.047            2.478     31.16    687.49
         N          6.032            2.478     31.16    687.49
         N          6.032            2.478     31.16    687.49
         Cr        12.627            3.252    306.69  28303.74
         Cr        12.627            3.252    306.69  28303.74
         Cr        12.627            3.252    306.69  28303.74
         Cr        10.143            3.252    306.69  28303.74
         Cr        10.143            3.252    306.69  28303.74
         Cr        10.143            3.252    306.69  28303.74
         N          3.022            2.478     31.29    690.36
         N          6.023            2.478     31.16    687.49
         N          6.023            2.478     31.16    687.49
         Cr         9.105            3.252    306.69  28303.74
         Cr         9.071            3.252    306.69  28303.74
         Cr         9.071            3.252    306.69  28303.74
         Cr        12.748            3.252    306.69  28303.74
         Cr        12.748            3.252    306.69  28303.74
         Cr        12.748            3.252    306.69  28303.74
         N          6.047            2.478     31.16    687.49
         N          6.032            2.478     31.16    687.49
         N          6.032            2.478     31.16    687.49
         Cr        12.627            3.252    306.69  28303.74
         Cr        12.627            3.252    306.69  28303.74
         Cr        12.627            3.252    306.69  28303.74
         Cr        10.143            3.252    306.69  28303.74
         Cr        10.143            3.252    306.69  28303.74
         Cr        10.143            3.252    306.69  28303.74
         N          3.022            2.478     31.29    690.36
         N          6.023            2.478     31.16    687.49
         N          6.023            2.478     31.16    687.49
         Cr         9.072            3.252    306.69  28303.74
         Cr         9.072            3.252    306.69  28303.74
         Cr         9.105            3.252    306.69  28303.74
         Cr        12.748            3.252    306.69  28303.74
         Cr        12.748            3.252    306.69  28303.74
         Cr        12.748            3.252    306.69  28303.74
         N          6.047            2.478     31.16    687.49
         N          6.032            2.478     31.16    687.49
         N          6.032            2.478     31.16    687.49
         C          4.015            2.750     36.63   1059.29
         H          1.065            2.062      6.13     74.14
         H          0.997            2.062      6.18     74.75
         H          0.997            2.062      6.18     74.75
         H          0.997            2.062      6.18     74.75

         Molecular C6 ( Ry / a.u.^6 ) =    974496.08


     number of k points=    10  Methfessel-Paxton smearing, width (Ry)=  0.0200
                       cart. coord. in units 2pi/alat
        k(    1) = (   0.0000000   0.0000000   0.0000000), wk =   0.1250000
        k(    2) = (   0.0000000   0.2886753   0.0000000), wk =   0.2500000
        k(    3) = (   0.0000000  -0.5773505   0.0000000), wk =   0.1250000
        k(    4) = (   0.2500000   0.4330129   0.0000000), wk =   0.2500000
        k(    5) = (  -0.2500000   0.1443376   0.0000000), wk =   0.2500000
        k(    6) = (   0.2500000   0.1443376   0.0000000), wk =   0.2500000
        k(    7) = (   0.5000000  -0.2886753   0.0000000), wk =   0.1250000
        k(    8) = (  -0.5000000  -0.2886753   0.0000000), wk =   0.1250000
        k(    9) = (  -0.2500000   0.4330129   0.0000000), wk =   0.2500000
        k(   10) = (   0.5000000  -0.0000000   0.0000000), wk =   0.2500000

     Dense  grid:  4502593 G-vectors     FFT dimensions: ( 180, 180, 375)

     Smooth grid:   866593 G-vectors     FFT dimensions: (  96,  96, 216)

     Estimated max dynamical RAM per process >     867.27 MB

     Estimated total dynamical RAM >      50.98 GB

     Initial potential from superposition of free atoms

     starting charge     799.9627, renormalised to     800.0000

     negative rho (up, down):  3.319E-04 0.000E+00
     Starting wfcs are  584 randomized atomic wfcs
     Checking if some PAW data can be deallocated... 

     total cpu time spent up to now is       19.2 secs

     Self-consistent Calculation

     iteration #  1     ecut=    70.00 Ry     beta= 0.20
     Davidson diagonalization with overlap
     ethr =  1.00E-02,  avg # of iterations =  2.7

     negative rho (up, down):  1.306E-04 0.000E+00

     total cpu time spent up to now is       64.8 secs

     total energy              =  -12610.57341488 Ry
     estimated scf accuracy    <      29.48036903 Ry

     iteration #  2     ecut=    70.00 Ry     beta= 0.20
     Davidson diagonalization with overlap
     ethr =  3.69E-03,  avg # of iterations =  6.5

     negative rho (up, down):  4.049E-04 0.000E+00

     total cpu time spent up to now is      120.0 secs

     total energy              =  -12600.01700834 Ry
     estimated scf accuracy    <     688.10656549 Ry

     iteration #  3     ecut=    70.00 Ry     beta= 0.20
     Davidson diagonalization with overlap
     ethr =  3.69E-03,  avg # of iterations =  3.5

     negative rho (up, down):  5.936E-04 0.000E+00

     total cpu time spent up to now is      162.1 secs

     total energy              =  -12608.72811155 Ry
     estimated scf accuracy    <     499.87052330 Ry

     iteration #  4     ecut=    70.00 Ry     beta= 0.20
     Davidson diagonalization with overlap
     ethr =  3.69E-03,  avg # of iterations =  2.0

     negative rho (up, down):  2.662E-04 0.000E+00

     total cpu time spent up to now is      202.0 secs

     total energy              =  -12615.00857046 Ry
     estimated scf accuracy    <      82.11509663 Ry

     iteration #  5     ecut=    70.00 Ry     beta= 0.20
     Davidson diagonalization with overlap
     ethr =  3.69E-03,  avg # of iterations =  1.5

     negative rho (up, down):  3.350E-04 0.000E+00

     total cpu time spent up to now is      240.5 secs

     total energy              =  -12615.85304152 Ry
     estimated scf accuracy    <       6.78070136 Ry

     iteration #  6     ecut=    70.00 Ry     beta= 0.20
     Davidson diagonalization with overlap
     ethr =  8.48E-04,  avg # of iterations =  7.8

     negative rho (up, down):  3.982E-04 0.000E+00

     total cpu time spent up to now is      285.7 secs

     total energy              =  -12616.22217637 Ry
     estimated scf accuracy    <       3.70279812 Ry

     iteration #  7     ecut=    70.00 Ry     beta= 0.20
     Davidson diagonalization with overlap
     c_bands:  1 eigenvalues not converged
     ethr =  4.63E-04,  avg # of iterations =  8.8

     negative rho (up, down):  4.041E-04 0.000E+00

     total cpu time spent up to now is      331.2 secs

     total energy              =  -12616.33130824 Ry
     estimated scf accuracy    <       1.67399279 Ry

     iteration #  8     ecut=    70.00 Ry     beta= 0.20
     Davidson diagonalization with overlap
     c_bands:  1 eigenvalues not converged
     ethr =  2.09E-04,  avg # of iterations =  7.9

     negative rho (up, down):  4.200E-04 0.000E+00

     total cpu time spent up to now is      376.6 secs

     total energy              =  -12616.36493136 Ry
     estimated scf accuracy    <       0.82843110 Ry

     iteration #  9     ecut=    70.00 Ry     beta= 0.20
     Davidson diagonalization with overlap
     ethr =  1.04E-04,  avg # of iterations = 13.1

     negative rho (up, down):  3.380E-04 0.000E+00

     total cpu time spent up to now is      428.7 secs

     total energy              =  -12616.36875790 Ry
     estimated scf accuracy    <       0.71156427 Ry

     iteration # 10     ecut=    70.00 Ry     beta= 0.20
     Davidson diagonalization with overlap
     ethr =  8.89E-05,  avg # of iterations =  1.7

     negative rho (up, down):  3.231E-04 0.000E+00

     total cpu time spent up to now is      468.4 secs

     total energy              =  -12616.36955567 Ry
     estimated scf accuracy    <       0.42472574 Ry

     iteration # 11     ecut=    70.00 Ry     beta= 0.20
     Davidson diagonalization with overlap
     c_bands:  2 eigenvalues not converged
     ethr =  5.31E-05,  avg # of iterations = 11.2

     negative rho (up, down):  3.283E-04 0.000E+00

     total cpu time spent up to now is      527.0 secs

     total energy              =  -12616.37972411 Ry
     estimated scf accuracy    <       0.26995799 Ry

     iteration # 12     ecut=    70.00 Ry     beta= 0.20
     Davidson diagonalization with overlap
     ethr =  3.37E-05,  avg # of iterations =  4.6

     negative rho (up, down):  2.368E-04 0.000E+00

     total cpu time spent up to now is      572.1 secs

     total energy              =  -12616.37381931 Ry
     estimated scf accuracy    <       0.48935610 Ry

     iteration # 13     ecut=    70.00 Ry     beta= 0.20
     Davidson diagonalization with overlap
     ethr =  3.37E-05,  avg # of iterations =  1.0

     negative rho (up, down):  2.112E-04 0.000E+00

     total cpu time spent up to now is      607.3 secs

     total energy              =  -12616.38226504 Ry
     estimated scf accuracy    <       0.10876087 Ry

     iteration # 14     ecut=    70.00 Ry     beta= 0.20
     Davidson diagonalization with overlap
     ethr =  1.36E-05,  avg # of iterations =  1.9

     negative rho (up, down):  1.920E-04 0.000E+00

     total cpu time spent up to now is      647.3 secs

     total energy              =  -12616.38351333 Ry
     estimated scf accuracy    <       0.10100795 Ry

     iteration # 15     ecut=    70.00 Ry     beta= 0.20
     Davidson diagonalization with overlap
     ethr =  1.26E-05,  avg # of iterations =  1.3

     negative rho (up, down):  1.802E-04 0.000E+00

     total cpu time spent up to now is      685.8 secs

     total energy              =  -12616.38345681 Ry
     estimated scf accuracy    <       0.11550473 Ry

     iteration # 16     ecut=    70.00 Ry     beta= 0.20
     Davidson diagonalization with overlap
     ethr =  1.26E-05,  avg # of iterations =  1.4

     negative rho (up, down):  1.797E-04 0.000E+00

     total cpu time spent up to now is      723.5 secs

     total energy              =  -12616.38478945 Ry
     estimated scf accuracy    <       0.02825929 Ry

     iteration # 17     ecut=    70.00 Ry     beta= 0.20
     Davidson diagonalization with overlap
     c_bands:  1 eigenvalues not converged
     ethr =  3.53E-06,  avg # of iterations = 12.7

     negative rho (up, down):  1.812E-04 0.000E+00

     total cpu time spent up to now is      776.2 secs

     total energy              =  -12616.38410822 Ry
     estimated scf accuracy    <       0.06869607 Ry

     iteration # 18     ecut=    70.00 Ry     beta= 0.20
     Davidson diagonalization with overlap
     ethr =  3.53E-06,  avg # of iterations =  2.3

     negative rho (up, down):  1.856E-04 0.000E+00

     total cpu time spent up to now is      816.5 secs

     total energy              =  -12616.38551050 Ry
     estimated scf accuracy    <       0.03243918 Ry

     iteration # 19     ecut=    70.00 Ry     beta= 0.20
     Davidson diagonalization with overlap
     ethr =  3.53E-06,  avg # of iterations =  1.1

     negative rho (up, down):  1.874E-04 0.000E+00

     total cpu time spent up to now is      852.6 secs

     total energy              =  -12616.38635999 Ry
     estimated scf accuracy    <       0.00538149 Ry

     iteration # 20     ecut=    70.00 Ry     beta= 0.20
     Davidson diagonalization with overlap
     ethr =  6.73E-07,  avg # of iterations =  3.2

     negative rho (up, down):  1.897E-04 0.000E+00

     total cpu time spent up to now is      893.9 secs

     total energy              =  -12616.38650289 Ry
     estimated scf accuracy    <       0.00269533 Ry

     iteration # 21     ecut=    70.00 Ry     beta= 0.20
     Davidson diagonalization with overlap
     ethr =  3.37E-07,  avg # of iterations =  3.8

     negative rho (up, down):  1.942E-04 0.000E+00

     total cpu time spent up to now is      935.7 secs

     total energy              =  -12616.38655727 Ry
     estimated scf accuracy    <       0.00521004 Ry

     iteration # 22     ecut=    70.00 Ry     beta= 0.20
     Davidson diagonalization with overlap
     ethr =  3.37E-07,  avg # of iterations =  1.2

     negative rho (up, down):  1.986E-04 0.000E+00

     total cpu time spent up to now is      971.9 secs

     total energy              =  -12616.38668344 Ry
     estimated scf accuracy    <       0.00336940 Ry

     iteration # 23     ecut=    70.00 Ry     beta= 0.20
     Davidson diagonalization with overlap
     ethr =  3.37E-07,  avg # of iterations =  1.1

     negative rho (up, down):  1.999E-04 0.000E+00

     total cpu time spent up to now is     1008.1 secs

     total energy              =  -12616.38678686 Ry
     estimated scf accuracy    <       0.00066054 Ry

     iteration # 24     ecut=    70.00 Ry     beta= 0.20
     Davidson diagonalization with overlap
     ethr =  8.26E-08,  avg # of iterations =  5.2

     negative rho (up, down):  2.003E-04 0.000E+00

     total cpu time spent up to now is     1050.5 secs

     total energy              =  -12616.38679790 Ry
     estimated scf accuracy    <       0.00194958 Ry

     iteration # 25     ecut=    70.00 Ry     beta= 0.20
     Davidson diagonalization with overlap
     ethr =  8.26E-08,  avg # of iterations =  1.2

     negative rho (up, down):  2.009E-04 0.000E+00

     total cpu time spent up to now is     1087.9 secs

     total energy              =  -12616.38683054 Ry
     estimated scf accuracy    <       0.00127529 Ry

     iteration # 26     ecut=    70.00 Ry     beta= 0.20
     Davidson diagonalization with overlap
     ethr =  8.26E-08,  avg # of iterations =  1.3

     negative rho (up, down):  2.017E-04 0.000E+00

     total cpu time spent up to now is     1125.5 secs

     total energy              =  -12616.38684712 Ry
     estimated scf accuracy    <       0.00031387 Ry

     iteration # 27     ecut=    70.00 Ry     beta= 0.20
     Davidson diagonalization with overlap
     ethr =  3.92E-08,  avg # of iterations =  2.0

     negative rho (up, down):  2.010E-04 0.000E+00

     total cpu time spent up to now is     1165.5 secs

     total energy              =  -12616.38684859 Ry
     estimated scf accuracy    <       0.00051068 Ry

     iteration # 28     ecut=    70.00 Ry     beta= 0.20
     Davidson diagonalization with overlap
     ethr =  3.92E-08,  avg # of iterations =  1.5

     negative rho (up, down):  2.011E-04 0.000E+00

     total cpu time spent up to now is     1204.5 secs

     total energy              =  -12616.38685333 Ry
     estimated scf accuracy    <       0.00029227 Ry

     iteration # 29     ecut=    70.00 Ry     beta= 0.20
     Davidson diagonalization with overlap
     ethr =  3.65E-08,  avg # of iterations =  1.0

     negative rho (up, down):  2.011E-04 0.000E+00

     total cpu time spent up to now is     1239.6 secs

     total energy              =  -12616.38685932 Ry
     estimated scf accuracy    <       0.00015842 Ry

     iteration # 30     ecut=    70.00 Ry     beta= 0.20
     Davidson diagonalization with overlap
     ethr =  1.98E-08,  avg # of iterations =  1.4

     negative rho (up, down):  2.011E-04 0.000E+00

     total cpu time spent up to now is     1278.1 secs

     total energy              =  -12616.38686305 Ry
     estimated scf accuracy    <       0.00006558 Ry

     iteration # 31     ecut=    70.00 Ry     beta= 0.20
     Davidson diagonalization with overlap
     ethr =  8.20E-09,  avg # of iterations =  2.1

     negative rho (up, down):  2.006E-04 0.000E+00

     total cpu time spent up to now is     1318.1 secs

     total energy              =  -12616.38686347 Ry
     estimated scf accuracy    <       0.00003897 Ry

     iteration # 32     ecut=    70.00 Ry     beta= 0.20
     Davidson diagonalization with overlap
     ethr =  4.87E-09,  avg # of iterations =  2.2

     negative rho (up, down):  2.005E-04 0.000E+00

     total cpu time spent up to now is     1358.1 secs

     total energy              =  -12616.38686355 Ry
     estimated scf accuracy    <       0.00001885 Ry

     iteration # 33     ecut=    70.00 Ry     beta= 0.20
     Davidson diagonalization with overlap
     ethr =  2.36E-09,  avg # of iterations =  5.5

     negative rho (up, down):  2.002E-04 0.000E+00

     total cpu time spent up to now is     1400.6 secs

     total energy              =  -12616.38686329 Ry
     estimated scf accuracy    <       0.00001522 Ry

     iteration # 34     ecut=    70.00 Ry     beta= 0.20
     Davidson diagonalization with overlap
     ethr =  1.90E-09,  avg # of iterations =  2.3

     negative rho (up, down):  1.998E-04 0.000E+00

     total cpu time spent up to now is     1440.8 secs

     total energy              =  -12616.38686206 Ry
     estimated scf accuracy    <       0.00002856 Ry

     iteration # 35     ecut=    70.00 Ry     beta= 0.20
     Davidson diagonalization with overlap
     ethr =  1.90E-09,  avg # of iterations =  2.0

     negative rho (up, down):  1.998E-04 0.000E+00

     total cpu time spent up to now is     1480.7 secs

     total energy              =  -12616.38686184 Ry
     estimated scf accuracy    <       0.00006675 Ry

     iteration # 36     ecut=    70.00 Ry     beta= 0.20
     Davidson diagonalization with overlap
     ethr =  1.90E-09,  avg # of iterations =  1.3

     negative rho (up, down):  1.997E-04 0.000E+00

     total cpu time spent up to now is     1519.1 secs

     total energy              =  -12616.38686265 Ry
     estimated scf accuracy    <       0.00000447 Ry

     iteration # 37     ecut=    70.00 Ry     beta= 0.20
     Davidson diagonalization with overlap
     ethr =  5.59E-10,  avg # of iterations =  4.2

     negative rho (up, down):  1.995E-04 0.000E+00

     total cpu time spent up to now is     1561.8 secs

     total energy              =  -12616.38686240 Ry
     estimated scf accuracy    <       0.00001724 Ry

     iteration # 38     ecut=    70.00 Ry     beta= 0.20
     Davidson diagonalization with overlap
     ethr =  5.59E-10,  avg # of iterations =  1.2

     negative rho (up, down):  1.994E-04 0.000E+00

     total cpu time spent up to now is     1599.0 secs

     total energy              =  -12616.38686246 Ry
     estimated scf accuracy    <       0.00000581 Ry

     iteration # 39     ecut=    70.00 Ry     beta= 0.20
     Davidson diagonalization with overlap
     ethr =  5.59E-10,  avg # of iterations =  1.4

     negative rho (up, down):  1.993E-04 0.000E+00

     total cpu time spent up to now is     1637.7 secs

     total energy              =  -12616.38686252 Ry
     estimated scf accuracy    <       0.00000126 Ry

     iteration # 40     ecut=    70.00 Ry     beta= 0.20
     Davidson diagonalization with overlap
     ethr =  1.58E-10,  avg # of iterations =  3.5

     negative rho (up, down):  1.991E-04 0.000E+00

     total cpu time spent up to now is     1679.6 secs

     total energy              =  -12616.38686245 Ry
     estimated scf accuracy    <       0.00000129 Ry

     iteration # 41     ecut=    70.00 Ry     beta= 0.20
     Davidson diagonalization with overlap
     ethr =  1.58E-10,  avg # of iterations =  1.9

     negative rho (up, down):  1.990E-04 0.000E+00

     total cpu time spent up to now is     1719.6 secs

     total energy              =  -12616.38686239 Ry
     estimated scf accuracy    <       0.00000233 Ry

     iteration # 42     ecut=    70.00 Ry     beta= 0.20
     Davidson diagonalization with overlap
     ethr =  1.58E-10,  avg # of iterations =  1.5

     negative rho (up, down):  1.990E-04 0.000E+00

     total cpu time spent up to now is     1758.8 secs

     total energy              =  -12616.38686244 Ry
     estimated scf accuracy    <       0.00000058 Ry

     iteration # 43     ecut=    70.00 Ry     beta= 0.20
     Davidson diagonalization with overlap
     ethr =  7.27E-11,  avg # of iterations =  2.1

     negative rho (up, down):  1.989E-04 0.000E+00

     total cpu time spent up to now is     1798.9 secs

     total energy              =  -12616.38686245 Ry
     estimated scf accuracy    <       0.00000070 Ry

     iteration # 44     ecut=    70.00 Ry     beta= 0.20
     Davidson diagonalization with overlap
     ethr =  7.27E-11,  avg # of iterations =  1.6

     negative rho (up, down):  1.989E-04 0.000E+00

     total cpu time spent up to now is     1838.0 secs

     total energy              =  -12616.38686246 Ry
     estimated scf accuracy    <       0.00000073 Ry

     iteration # 45     ecut=    70.00 Ry     beta= 0.20
     Davidson diagonalization with overlap
     ethr =  7.27E-11,  avg # of iterations =  1.1

     negative rho (up, down):  1.989E-04 0.000E+00

     total cpu time spent up to now is     1874.3 secs

     total energy              =  -12616.38686247 Ry
     estimated scf accuracy    <       0.00000057 Ry

     iteration # 46     ecut=    70.00 Ry     beta= 0.20
     Davidson diagonalization with overlap
     ethr =  7.14E-11,  avg # of iterations =  1.0

     negative rho (up, down):  1.988E-04 0.000E+00

     total cpu time spent up to now is     1909.3 secs

     total energy              =  -12616.38686248 Ry
     estimated scf accuracy    <       0.00000038 Ry

     iteration # 47     ecut=    70.00 Ry     beta= 0.20
     Davidson diagonalization with overlap
     ethr =  4.78E-11,  avg # of iterations =  1.0

     negative rho (up, down):  1.988E-04 0.000E+00

     total cpu time spent up to now is     1944.4 secs

     total energy              =  -12616.38686248 Ry
     estimated scf accuracy    <       0.00000043 Ry

     iteration # 48     ecut=    70.00 Ry     beta= 0.20
     Davidson diagonalization with overlap
     ethr =  4.78E-11,  avg # of iterations =  1.0

     negative rho (up, down):  1.988E-04 0.000E+00

     total cpu time spent up to now is     1979.4 secs

     total energy              =  -12616.38686248 Ry
     estimated scf accuracy    <       0.00000114 Ry

     iteration # 49     ecut=    70.00 Ry     beta= 0.20
     Davidson diagonalization with overlap
     ethr =  4.78E-11,  avg # of iterations =  1.0

     negative rho (up, down):  1.988E-04 0.000E+00

     total cpu time spent up to now is     2014.5 secs

     total energy              =  -12616.38686249 Ry
     estimated scf accuracy    <       0.00000023 Ry

     iteration # 50     ecut=    70.00 Ry     beta= 0.20
     Davidson diagonalization with overlap
     ethr =  2.83E-11,  avg # of iterations =  1.0

     negative rho (up, down):  1.988E-04 0.000E+00

     total cpu time spent up to now is     2049.6 secs

     total energy              =  -12616.38686249 Ry
     estimated scf accuracy    <       0.00000004 Ry

     iteration # 51     ecut=    70.00 Ry     beta= 0.20
     Davidson diagonalization with overlap
     ethr =  5.46E-12,  avg # of iterations =  3.9

     negative rho (up, down):  1.988E-04 0.000E+00

     total cpu time spent up to now is     2091.0 secs

     total energy              =  -12616.38686249 Ry
     estimated scf accuracy    <       0.00000003 Ry

     iteration # 52     ecut=    70.00 Ry     beta= 0.20
     Davidson diagonalization with overlap
     ethr =  4.08E-12,  avg # of iterations =  1.4

     negative rho (up, down):  1.988E-04 0.000E+00

     total cpu time spent up to now is     2130.0 secs

     total energy              =  -12616.38686249 Ry
     estimated scf accuracy    <       0.00000002 Ry

     iteration # 53     ecut=    70.00 Ry     beta= 0.20
     Davidson diagonalization with overlap
     ethr =  2.26E-12,  avg # of iterations =  4.6

     negative rho (up, down):  1.988E-04 0.000E+00

     total cpu time spent up to now is     2171.9 secs

     total energy              =  -12616.38686249 Ry
     estimated scf accuracy    <       0.00000002 Ry

     iteration # 54     ecut=    70.00 Ry     beta= 0.20
     Davidson diagonalization with overlap
     ethr =  2.26E-12,  avg # of iterations =  1.8

     negative rho (up, down):  1.988E-04 0.000E+00

     total cpu time spent up to now is     2211.1 secs

     total energy              =  -12616.38686249 Ry
     estimated scf accuracy    <       0.00000004 Ry

     iteration # 55     ecut=    70.00 Ry     beta= 0.20
     Davidson diagonalization with overlap
     ethr =  2.26E-12,  avg # of iterations =  1.4

     negative rho (up, down):  1.988E-04 0.000E+00

     total cpu time spent up to now is     2250.0 secs

     total energy              =  -12616.38686249 Ry
     estimated scf accuracy    <       0.00000002 Ry

     iteration # 56     ecut=    70.00 Ry     beta= 0.20
     Davidson diagonalization with overlap
     ethr =  2.26E-12,  avg # of iterations =  1.0

     negative rho (up, down):  1.988E-04 0.000E+00

     total cpu time spent up to now is     2285.2 secs

     total energy              =  -12616.38686249 Ry
     estimated scf accuracy    <       0.00000005 Ry

     iteration # 57     ecut=    70.00 Ry     beta= 0.20
     Davidson diagonalization with overlap
     ethr =  2.26E-12,  avg # of iterations =  1.0

     negative rho (up, down):  1.988E-04 0.000E+00

     total cpu time spent up to now is     2320.2 secs

     total energy              =  -12616.38686249 Ry
     estimated scf accuracy    <       0.00000001 Ry

     iteration # 58     ecut=    70.00 Ry     beta= 0.20
     Davidson diagonalization with overlap
     ethr =  1.53E-12,  avg # of iterations =  1.0

     negative rho (up, down):  1.988E-04 0.000E+00

     total cpu time spent up to now is     2355.4 secs

     total energy              =  -12616.38686249 Ry
     estimated scf accuracy    <       0.00000002 Ry

     iteration # 59     ecut=    70.00 Ry     beta= 0.20
     Davidson diagonalization with overlap
     ethr =  1.53E-12,  avg # of iterations =  1.0

     negative rho (up, down):  1.988E-04 0.000E+00

     total cpu time spent up to now is     2390.3 secs

     End of self-consistent calculation

          k = 0.0000 0.0000 0.0000 (108303 PWs)   bands (ev):

   -67.0762 -67.0355 -67.0355 -67.0355 -67.0273 -67.0273 -67.0264 -67.0250
   -67.0016 -67.0009 -67.0009 -66.9976 -66.9976 -66.9975 -66.9933 -66.9933
   -66.9920 -66.9903 -66.9903 -66.9806 -66.9790 -66.9790 -66.9756 -66.9756
   -66.8228 -66.7935 -66.7934 -66.7934 -66.7868 -66.7863 -66.7863 -66.7699
   -66.7699 -66.7693 -66.7633 -66.7633 -66.7342 -66.7099 -66.6988 -66.6988
   -66.6859 -66.6859 -66.6645 -66.6603 -66.6603 -66.6566 -66.6505 -66.6505
   -38.8802 -38.8531 -38.8531 -38.8506 -38.7507 -38.7507 -38.7502 -38.7113
   -38.7113 -38.6953 -38.6953 -38.6940 -38.6711 -38.6404 -38.6404 -38.6367
   -38.6170 -38.6170 -38.6160 -38.5910 -38.5863 -38.5863 -38.5529 -38.5529
   -38.5483 -38.5483 -38.5476 -38.5403 -38.4658 -38.4548 -38.4487 -38.4487
   -38.4471 -38.4434 -38.4434 -38.4418 -38.4397 -38.4397 -38.4032 -38.4032
   -38.4029 -38.3865 -38.3864 -38.3864 -38.3668 -38.3431 -38.3413 -38.3413
   -38.3389 -38.3384 -38.3384 -38.3375 -38.3375 -38.3266 -38.3190 -38.3190
   -38.3139 -38.3139 -38.3087 -38.3060 -38.3060 -38.3057 -38.3048 -38.3048
   -38.2934 -38.2912 -38.2912 -38.2870 -38.2780 -38.2780 -38.2765 -38.2314
   -38.2314 -38.2291 -38.2258 -38.2191 -38.2191 -38.2180 -38.2180 -38.2124
   -38.2019 -38.1928 -38.1928 -38.1891 -38.1708 -38.1708 -38.1702 -38.1608
   -38.1608 -38.1539 -38.1539 -38.1322 -38.1301 -38.1277 -38.1277 -38.1249
   -38.1166 -38.1166 -38.1086 -38.1086 -38.1066 -38.0794 -38.0788 -38.0788
   -38.0453 -38.0453 -38.0376 -38.0376 -38.0368 -38.0273 -38.0273 -38.0238
   -38.0211 -38.0211 -38.0195 -38.0027 -38.0027 -37.9969 -37.9969 -37.9872
   -37.9872 -37.9752 -37.9752 -37.9749 -37.9414 -37.9408 -37.9408 -37.9399
   -37.9399 -37.9396 -37.9111 -37.9111 -37.9075 -37.8922 -37.8842 -37.8842
   -37.7781 -37.7781 -37.7708 -37.7507 -37.7507 -37.7487 -37.7306 -37.7306
   -12.5771 -12.1070 -11.8746 -11.8746 -11.8739 -11.7267 -11.7267 -11.7230
   -11.7018 -11.7018 -11.6995 -11.4190 -11.4190 -11.4162 -11.3425 -11.3095
   -11.3095 -11.3073 -11.0786 -11.0566  -8.7845  -8.7845  -8.7844  -8.7269
    -7.8099  -3.0790  -3.0771  -3.0771  -2.8638  -2.8356  -2.8356  -2.6411
    -2.6410  -2.6410  -2.6229  -2.6131  -2.6131  -2.5448  -2.4867  -2.4804
    -2.4804  -2.3964  -2.3935  -2.3935  -2.3128  -2.3128  -1.8398  -1.8342
    -1.8342  -1.6567  -1.6567  -1.6557  -1.5686  -1.5685  -1.5621  -1.5052
    -1.5016  -1.5016  -1.4273  -1.4137  -1.4137  -1.4123  -1.3601  -1.3601
    -1.3023  -1.3010  -1.3010  -1.1637  -1.1637  -1.0598  -0.9954  -0.9954
    -0.9940  -0.9762  -0.9761  -0.9289  -0.9007  -0.9007  -0.8992  -0.7620
    -0.7620  -0.7612  -0.7132  -0.5117  -0.5099  -0.5099  -0.0682  -0.0681
     0.5815   1.1513   1.1515   1.1516   1.3942   1.3944   1.3944   1.4699
     1.4879   1.4879   1.5084   1.5092   1.5092   1.5306   1.5306   1.5308
     1.7015   1.7050   1.7050   1.9917   1.9919   1.9919   2.1173   2.1173
     2.1196   2.1493   2.2693   2.2760   2.2760   2.3633   2.3633   2.3687
     2.3780   2.3780   2.3781   2.4413   2.4422   2.4422   2.4590   2.6208
     2.6208   2.7240   2.7262   2.7262   3.0811   3.0811   3.1207   3.2121
     3.2121   3.2747   3.2747   3.2766   3.2912   3.2912   3.2946   3.4154
     3.4154   3.4230   3.4679   3.4807   3.4807   3.5721   3.5961   3.5961
     3.6069   3.6207   3.6207   3.6536   3.6536   3.6561   3.6655   3.7495
     3.7495   3.7556   3.9174   3.9174   3.9621   4.0638   4.0638   4.0712
     4.0854   4.0854   4.2225   4.2242   4.2242   4.2367   4.2922   4.2922
     4.2940   4.3461   4.3461   4.3477   4.3612   4.4247   4.4247   4.4269
     4.4767   4.4767   4.5725   4.6332   4.6332   4.6649   4.6762   4.7153
     4.7153   4.7609   4.7647   4.7647   4.8118   4.8118   4.8220   4.8845
     4.8846   4.9025   4.9452   4.9452   4.9849   5.0560   5.0561   5.0643
     5.1607   5.1607   5.2140   5.3201   5.3201   5.3214   5.4302   5.4302
     5.4736   5.4736   5.4816   5.4955   5.4955   5.4972   5.6216   5.6216
     5.6267   5.6349   5.6349   5.6388   5.6565   5.6565   5.6927   5.6927
     5.7209   5.7732   5.7878   5.7878   5.7941   5.7988   5.7988   5.8133
     5.8367   5.8367   5.9159   5.9159   5.9227   5.9394   5.9394   5.9414
     5.9414   5.9498   5.9963   5.9963   5.9973   6.0439   6.0439   6.0580
     6.1315   6.1315   6.1450   6.1451   6.1451   6.1903   6.1903   6.1979
     6.1979   6.2012   6.2469   6.2472   6.2472   6.2942   6.2942   6.3146
     6.4611   6.4997   6.4997   6.5007   6.5592   6.5593   6.5717   6.5995
     6.5996   6.6458   6.6481   6.6485   6.6563   6.6566   6.6795   6.7640

          k = 0.0000 0.2887 0.0000 (108355 PWs)   bands (ev):

   -67.0727 -67.0485 -67.0392 -67.0390 -67.0226 -67.0211 -67.0206 -67.0145
   -67.0060 -67.0041 -67.0037 -67.0002 -66.9998 -66.9994 -66.9931 -66.9923
   -66.9898 -66.9888 -66.9857 -66.9814 -66.9802 -66.9788 -66.9763 -66.9761
   -66.8202 -66.8025 -66.7959 -66.7956 -66.7827 -66.7822 -66.7783 -66.7716
   -66.7712 -66.7688 -66.7648 -66.7644 -66.7332 -66.7106 -66.7015 -66.6995
   -66.6848 -66.6841 -66.6627 -66.6602 -66.6596 -66.6571 -66.6520 -66.6510
   -38.8769 -38.8571 -38.8490 -38.8473 -38.7461 -38.7455 -38.7447 -38.7192
   -38.7100 -38.7019 -38.7016 -38.6989 -38.6727 -38.6575 -38.6436 -38.6405
   -38.6130 -38.6110 -38.6016 -38.5927 -38.5883 -38.5869 -38.5810 -38.5586
   -38.5425 -38.5418 -38.5404 -38.5188 -38.4593 -38.4582 -38.4534 -38.4485
   -38.4455 -38.4390 -38.4383 -38.4373 -38.4323 -38.4247 -38.4084 -38.4047
   -38.4037 -38.3951 -38.3895 -38.3885 -38.3657 -38.3584 -38.3476 -38.3436
   -38.3426 -38.3415 -38.3409 -38.3408 -38.3360 -38.3311 -38.3281 -38.3242
   -38.3217 -38.3208 -38.3142 -38.3092 -38.3088 -38.3029 -38.2942 -38.2914
   -38.2878 -38.2858 -38.2854 -38.2741 -38.2690 -38.2681 -38.2673 -38.2382
   -38.2363 -38.2331 -38.2303 -38.2299 -38.2240 -38.2174 -38.2171 -38.2041
   -38.2024 -38.1978 -38.1969 -38.1819 -38.1754 -38.1735 -38.1669 -38.1614
   -38.1595 -38.1569 -38.1470 -38.1360 -38.1317 -38.1279 -38.1265 -38.1185
   -38.1169 -38.1075 -38.1050 -38.1026 -38.1012 -38.0859 -38.0844 -38.0812
   -38.0499 -38.0457 -38.0434 -38.0354 -38.0352 -38.0332 -38.0234 -38.0222
   -38.0202 -38.0182 -38.0165 -38.0008 -38.0002 -37.9962 -37.9952 -37.9892
   -37.9878 -37.9776 -37.9775 -37.9736 -37.9473 -37.9435 -37.9432 -37.9347
   -37.9343 -37.9315 -37.9212 -37.9137 -37.9052 -37.8919 -37.8851 -37.8851
   -37.7763 -37.7749 -37.7683 -37.7521 -37.7493 -37.7465 -37.7387 -37.7324
   -12.5135 -12.0864 -12.0647 -11.9301 -11.9292 -11.7980 -11.7115 -11.7094
   -11.6364 -11.6349 -11.5562 -11.4105 -11.4084 -11.3615 -11.3421 -11.3407
   -11.3304 -11.2769 -11.1117 -11.0915  -8.7861  -8.7860  -8.7747  -8.7340
    -7.8099  -3.0469  -3.0449  -3.0048  -2.8926  -2.8218  -2.8096  -2.7848
    -2.7809  -2.7792  -2.6648  -2.6626  -2.5137  -2.4738  -2.4276  -2.4229
    -2.4225  -2.3639  -2.3116  -2.2821  -2.2789  -2.2338  -2.0336  -1.8447
    -1.8425  -1.7999  -1.7083  -1.7064  -1.6517  -1.5575  -1.5575  -1.5148
    -1.4979  -1.4681  -1.4670  -1.4434  -1.3980  -1.3973  -1.3860  -1.3298
    -1.3287  -1.3126  -1.1988  -1.1574  -1.1392  -1.0910  -1.0369  -0.9827
    -0.9708  -0.9699  -0.9172  -0.9110  -0.9087  -0.8803  -0.8525  -0.8021
    -0.7304  -0.7297  -0.7083  -0.5803  -0.5368  -0.5362  -0.0687  -0.0684
     0.7027   1.1128   1.1445   1.1447   1.3838   1.3839   1.3935   1.3961
     1.4602   1.4789   1.4796   1.4987   1.5601   1.5987   1.6004   1.6131
     1.7150   1.7165   1.7600   1.9997   2.0000   2.0436   2.0940   2.0958
     2.1487   2.2008   2.2347   2.2370   2.2609   2.3588   2.3609   2.3771
     2.3880   2.3895   2.4523   2.4827   2.4836   2.5027   2.5237   2.5528
     2.6557   2.7360   2.7365   2.7989   2.9533   3.0025   3.0659   3.1358
     3.1366   3.1673   3.1731   3.2005   3.2978   3.3006   3.3258   3.3331
     3.3337   3.3753   3.4525   3.5269   3.5348   3.5452   3.5761   3.6216
     3.6368   3.6487   3.6569   3.6661   3.7130   3.7163   3.7194   3.8010
     3.9263   3.9412   3.9532   3.9607   3.9729   3.9792   3.9926   4.0832
     4.1082   4.1184   4.1792   4.1852   4.2114   4.2347   4.2379   4.2434
     4.2701   4.2964   4.3154   4.3158   4.3386   4.4163   4.4243   4.4298
     4.4342   4.5013   4.5097   4.6032   4.6282   4.6644   4.6753   4.7024
     4.7178   4.7221   4.7729   4.7837   4.8204   4.8631   4.8756   4.8782
     4.9109   4.9149   4.9393   5.0004   5.0218   5.0717   5.0785   5.1214
     5.1312   5.1692   5.2115   5.2361   5.2630   5.2928   5.3051   5.3837
     5.4021   5.4056   5.4063   5.4582   5.4839   5.4863   5.4957   5.5109
     5.5116   5.6119   5.6382   5.6503   5.6747   5.6869   5.6932   5.6977
     5.7068   5.7442   5.7478   5.7662   5.7723   5.8172   5.8250   5.8274
     5.8290   5.8715   5.8812   5.9022   5.9074   5.9138   5.9501   5.9554
     5.9595   5.9714   5.9790   5.9832   5.9968   5.9986   6.0280   6.1136
     6.1399   6.1427   6.1623   6.1848   6.1874   6.1910   6.1928   6.2446
     6.2496   6.2515   6.2527   6.3032   6.3346   6.3407   6.3430   6.3898
     6.4022   6.4064   6.4720   6.4747   6.4886   6.4949   6.5858   6.5908
     6.6091   6.6265   6.6350   6.6548   6.6766   6.6850   6.7341   6.7374

          k = 0.0000-0.5774 0.0000 (108310 PWs)   bands (ev):

   -67.0630 -67.0627 -67.0413 -67.0411 -67.0160 -67.0155 -67.0134 -67.0129
   -67.0097 -67.0094 -67.0023 -67.0013 -67.0012 -67.0008 -66.9964 -66.9961
   -66.9857 -66.9843 -66.9838 -66.9832 -66.9800 -66.9790 -66.9778 -66.9771
   -66.8130 -66.8128 -66.7974 -66.7970 -66.7778 -66.7772 -66.7751 -66.7747
   -66.7701 -66.7697 -66.7668 -66.7666 -66.7321 -66.7114 -66.7037 -66.7001
   -66.6838 -66.6826 -66.6620 -66.6589 -66.6580 -66.6565 -66.6554 -66.6515
   -38.8680 -38.8672 -38.8446 -38.8430 -38.7401 -38.7378 -38.7348 -38.7335
   -38.7107 -38.7085 -38.7058 -38.7045 -38.6718 -38.6708 -38.6458 -38.6425
   -38.6097 -38.6065 -38.5992 -38.5985 -38.5945 -38.5914 -38.5736 -38.5715
   -38.5354 -38.5344 -38.5230 -38.5223 -38.4689 -38.4674 -38.4448 -38.4440
   -38.4381 -38.4377 -38.4292 -38.4289 -38.4175 -38.4171 -38.4067 -38.4058
   -38.4010 -38.4005 -38.3933 -38.3911 -38.3795 -38.3786 -38.3502 -38.3454
   -38.3451 -38.3448 -38.3408 -38.3404 -38.3398 -38.3368 -38.3342 -38.3271
   -38.3220 -38.3217 -38.3206 -38.3133 -38.3112 -38.3106 -38.2893 -38.2876
   -38.2772 -38.2684 -38.2668 -38.2649 -38.2614 -38.2593 -38.2580 -38.2557
   -38.2476 -38.2418 -38.2404 -38.2391 -38.2154 -38.2115 -38.2090 -38.2076
   -38.2046 -38.2045 -38.1918 -38.1910 -38.1782 -38.1746 -38.1721 -38.1607
   -38.1557 -38.1546 -38.1397 -38.1354 -38.1327 -38.1294 -38.1227 -38.1221
   -38.1147 -38.1134 -38.1003 -38.0970 -38.0956 -38.0910 -38.0712 -38.0702
   -38.0598 -38.0576 -38.0467 -38.0447 -38.0339 -38.0330 -38.0228 -38.0178
   -38.0175 -38.0151 -38.0111 -38.0084 -37.9960 -37.9937 -37.9927 -37.9904
   -37.9804 -37.9801 -37.9797 -37.9793 -37.9450 -37.9446 -37.9409 -37.9406
   -37.9307 -37.9302 -37.9213 -37.9210 -37.9030 -37.8900 -37.8878 -37.8860
   -37.7746 -37.7669 -37.7643 -37.7571 -37.7493 -37.7488 -37.7420 -37.7354
   -12.3368 -12.3362 -11.9647 -11.9637 -11.9503 -11.9491 -11.7192 -11.7172
   -11.5487 -11.5475 -11.4231 -11.4230 -11.4108 -11.4079 -11.3860 -11.3853
   -11.2034 -11.2021 -11.1841 -11.1841  -8.7877  -8.7876  -8.7531  -8.7530
    -7.8099  -3.0122  -3.0079  -2.9178  -2.9166  -2.8517  -2.8509  -2.8478
    -2.8459  -2.7241  -2.7235  -2.6074  -2.6061  -2.4444  -2.4410  -2.3790
    -2.3761  -2.3235  -2.3200  -2.1985  -2.1944  -2.1127  -2.1116  -1.9187
    -1.9181  -1.7801  -1.7748  -1.7323  -1.7306  -1.6491  -1.6434  -1.5208
    -1.5200  -1.5162  -1.5124  -1.3936  -1.3906  -1.3408  -1.3395  -1.3240
    -1.3218  -1.2075  -1.2074  -1.1264  -1.1257  -1.1094  -1.1090  -0.9799
    -0.9779  -0.9320  -0.9314  -0.9177  -0.9120  -0.8108  -0.8100  -0.7679
    -0.7474  -0.6986  -0.6974  -0.6825  -0.5609  -0.5599  -0.0692  -0.0687
     0.9465   0.9465   1.1324   1.1326   1.3624   1.3628   1.3839   1.3842
     1.4599   1.4600   1.4762   1.4762   1.6179   1.6181   1.6272   1.6314
     1.8536   1.8559   1.8610   1.8615   2.0339   2.0350   2.0712   2.0738
     2.1635   2.1652   2.2953   2.2966   2.3192   2.3199   2.3508   2.3514
     2.3896   2.3914   2.4016   2.4046   2.5108   2.5132   2.6812   2.6861
     2.7366   2.7388   2.7581   2.7599   2.9530   2.9557   2.9738   2.9746
     3.0443   3.0448   3.1388   3.1447   3.2625   3.2632   3.3235   3.3256
     3.3576   3.3603   3.4550   3.4559   3.5513   3.5614   3.6078   3.6085
     3.6698   3.6753   3.7506   3.7533   3.8069   3.8124   3.8416   3.8461
     3.8782   3.8796   3.9045   3.9222   3.9376   3.9444   4.0660   4.0789
     4.0875   4.0933   4.2142   4.2219   4.2224   4.2583   4.2618   4.2829
     4.2939   4.2981   4.2995   4.3113   4.3778   4.3949   4.4069   4.4110
     4.4141   4.4154   4.5432   4.5465   4.5495   4.5620   4.6148   4.6160
     4.6347   4.6354   4.7466   4.7590   4.9233   4.9269   4.9303   4.9329
     4.9343   4.9586   4.9989   5.0183   5.0523   5.0555   5.0717   5.0759
     5.1205   5.1220   5.2043   5.2309   5.2791   5.2804   5.2918   5.2938
     5.3737   5.3744   5.4039   5.4315   5.4560   5.4611   5.5002   5.5186
     5.5209   5.5274   5.5342   5.5548   5.6415   5.6439   5.6801   5.6804
     5.6983   5.7014   5.7111   5.7261   5.7680   5.7843   5.8090   5.8140
     5.8198   5.8344   5.8464   5.8509   5.9003   5.9172   5.9391   5.9414
     5.9752   5.9892   6.0135   6.0349   6.0882   6.0990   6.1044   6.1125
     6.1140   6.1202   6.1289   6.1358   6.1457   6.1496   6.2773   6.2793
     6.2832   6.2883   6.3218   6.3268   6.3631   6.3646   6.3812   6.3841
     6.3988   6.4038   6.4316   6.4333   6.5501   6.5533   6.5581   6.5590
     6.5907   6.5978   6.6497   6.6533   6.7863   6.7915   6.7979   6.8026

          k = 0.2500 0.4330 0.0000 (108308 PWs)   bands (ev):

   -67.0660 -67.0541 -67.0538 -67.0302 -67.0220 -67.0179 -67.0125 -67.0099
   -67.0095 -67.0073 -67.0071 -67.0013 -67.0009 -66.9976 -66.9963 -66.9941
   -66.9901 -66.9849 -66.9824 -66.9819 -66.9799 -66.9790 -66.9778 -66.9773
   -66.8153 -66.8064 -66.8063 -66.7897 -66.7831 -66.7769 -66.7737 -66.7735
   -66.7698 -66.7694 -66.7675 -66.7667 -66.7321 -66.7105 -66.7061 -66.6984
   -66.6839 -66.6829 -66.6609 -66.6602 -66.6581 -66.6572 -66.6541 -66.6519
   -38.8702 -38.8589 -38.8576 -38.8360 -38.7403 -38.7402 -38.7344 -38.7299
   -38.7153 -38.7079 -38.7043 -38.7031 -38.6723 -38.6631 -38.6630 -38.6234
   -38.6173 -38.6056 -38.6053 -38.5998 -38.5983 -38.5816 -38.5792 -38.5662
   -38.5313 -38.5306 -38.5297 -38.5185 -38.4947 -38.4473 -38.4470 -38.4463
   -38.4378 -38.4346 -38.4251 -38.4226 -38.4218 -38.4160 -38.4156 -38.4070
   -38.4006 -38.3941 -38.3937 -38.3922 -38.3756 -38.3700 -38.3687 -38.3496
   -38.3466 -38.3447 -38.3423 -38.3381 -38.3342 -38.3315 -38.3280 -38.3276
   -38.3252 -38.3227 -38.3188 -38.3137 -38.3105 -38.3092 -38.3084 -38.2754
   -38.2750 -38.2714 -38.2694 -38.2624 -38.2613 -38.2594 -38.2567 -38.2497
   -38.2485 -38.2438 -38.2429 -38.2405 -38.2172 -38.2103 -38.2093 -38.2030
   -38.2005 -38.1994 -38.1984 -38.1940 -38.1883 -38.1707 -38.1701 -38.1597
   -38.1559 -38.1548 -38.1381 -38.1377 -38.1346 -38.1295 -38.1280 -38.1232
   -38.1147 -38.1028 -38.1026 -38.0979 -38.0932 -38.0806 -38.0795 -38.0752
   -38.0602 -38.0488 -38.0486 -38.0437 -38.0352 -38.0316 -38.0253 -38.0214
   -38.0191 -38.0136 -38.0130 -38.0075 -37.9958 -37.9929 -37.9922 -37.9889
   -37.9847 -37.9831 -37.9749 -37.9747 -37.9495 -37.9490 -37.9377 -37.9367
   -37.9351 -37.9257 -37.9255 -37.9179 -37.9032 -37.8903 -37.8867 -37.8866
   -37.7722 -37.7703 -37.7631 -37.7585 -37.7516 -37.7437 -37.7437 -37.7353
   -12.3933 -12.1802 -12.1796 -11.9860 -11.8519 -11.8506 -11.8028 -11.6350
   -11.6093 -11.4990 -11.4802 -11.4794 -11.4638 -11.3990 -11.2875 -11.2856
   -11.2644 -11.2639 -11.1751 -11.1563  -8.7963  -8.7689  -8.7688  -8.7473
    -7.8099  -3.0612  -2.9628  -2.9612  -2.9449  -2.8335  -2.8319  -2.7913
    -2.7560  -2.7042  -2.6909  -2.6685  -2.6669  -2.6223  -2.4315  -2.2992
    -2.2951  -2.2837  -2.2597  -2.2066  -2.2039  -2.1614  -2.1596  -2.0335
    -1.8574  -1.8510  -1.7703  -1.7441  -1.6568  -1.6040  -1.6011  -1.5239
    -1.4992  -1.4803  -1.4492  -1.4476  -1.4425  -1.4424  -1.3824  -1.2634
    -1.2633  -1.2184  -1.2178  -1.1963  -1.1500  -1.0370  -1.0125  -1.0116
    -0.9586  -0.9454  -0.9368  -0.9185  -0.8892  -0.8859  -0.8309  -0.8299
    -0.7378  -0.7002  -0.6395  -0.6288  -0.6249  -0.5318  -0.0691  -0.0688
     0.8797   1.0640   1.0643   1.1651   1.3491   1.3654   1.3660   1.3683
     1.4119   1.4932   1.4933   1.5206   1.5862   1.6052   1.6060   1.6634
     1.7813   1.9000   1.9009   1.9885   1.9897   2.0530   2.0540   2.1117
     2.1187   2.1805   2.1807   2.2127   2.2868   2.2924   2.3276   2.3277
     2.3790   2.4284   2.4953   2.5216   2.5228   2.6055   2.6071   2.7227
     2.7243   2.7287   2.7612   2.7646   2.8629   2.8667   2.8675   2.9337
     3.1155   3.1788   3.2238   3.2251   3.2703   3.2707   3.2770   3.3638
     3.3680   3.3690   3.3858   3.4939   3.5132   3.5143   3.5834   3.6413
     3.6537   3.6882   3.6920   3.7216   3.7245   3.7820   3.8037   3.8210
     3.9606   3.9650   3.9856   4.0017   4.0029   4.0140   4.0144   4.0558
     4.0928   4.0991   4.1348   4.1718   4.1760   4.2313   4.2407   4.2630
     4.2944   4.2970   4.3286   4.3370   4.3691   4.3727   4.3969   4.4018
     4.4961   4.4974   4.5210   4.5325   4.5372   4.5394   4.5597   4.6101
     4.6647   4.7955   4.7965   4.8175   4.8214   4.8300   4.8390   4.8425
     4.8902   4.9179   4.9769   4.9948   5.0583   5.0793   5.0971   5.1016
     5.1186   5.2110   5.2257   5.2500   5.2556   5.2825   5.3205   5.3596
     5.3718   5.3719   5.3886   5.4186   5.4436   5.4526   5.4705   5.5193
     5.5352   5.5567   5.5676   5.6465   5.6608   5.6623   5.6717   5.6721
     5.7067   5.7116   5.7131   5.7159   5.7288   5.7939   5.7961   5.8110
     5.8123   5.8262   5.8401   5.8588   5.8644   5.9037   5.9124   5.9665
     5.9670   5.9761   6.0026   6.0101   6.0301   6.0386   6.0440   6.1086
     6.1139   6.1172   6.1486   6.1526   6.1736   6.2054   6.2256   6.2360
     6.2743   6.2830   6.3071   6.3111   6.3676   6.3967   6.4012   6.4356
     6.4382   6.4384   6.5008   6.5023   6.5317   6.5538   6.5871   6.6074
     6.6105   6.6175   6.6500   6.6625   6.6678   6.7321   6.7854   6.7892

          k =-0.2500 0.1443 0.0000 (108355 PWs)   bands (ev):

   -67.0727 -67.0485 -67.0392 -67.0390 -67.0226 -67.0211 -67.0206 -67.0145
   -67.0060 -67.0041 -67.0037 -67.0002 -66.9998 -66.9994 -66.9931 -66.9923
   -66.9897 -66.9888 -66.9857 -66.9814 -66.9802 -66.9788 -66.9763 -66.9761
   -66.8202 -66.8025 -66.7959 -66.7956 -66.7827 -66.7823 -66.7783 -66.7716
   -66.7712 -66.7688 -66.7648 -66.7644 -66.7332 -66.7105 -66.7015 -66.6995
   -66.6848 -66.6841 -66.6626 -66.6602 -66.6596 -66.6571 -66.6520 -66.6510
   -38.8769 -38.8571 -38.8490 -38.8473 -38.7461 -38.7455 -38.7447 -38.7192
   -38.7100 -38.7019 -38.7016 -38.6989 -38.6727 -38.6575 -38.6436 -38.6405
   -38.6130 -38.6110 -38.6016 -38.5927 -38.5883 -38.5869 -38.5810 -38.5586
   -38.5425 -38.5418 -38.5404 -38.5188 -38.4593 -38.4582 -38.4534 -38.4485
   -38.4455 -38.4390 -38.4383 -38.4373 -38.4323 -38.4247 -38.4084 -38.4047
   -38.4037 -38.3951 -38.3895 -38.3885 -38.3657 -38.3584 -38.3476 -38.3436
   -38.3426 -38.3415 -38.3409 -38.3408 -38.3360 -38.3311 -38.3281 -38.3242
   -38.3217 -38.3208 -38.3142 -38.3092 -38.3088 -38.3029 -38.2942 -38.2914
   -38.2878 -38.2858 -38.2854 -38.2741 -38.2690 -38.2681 -38.2673 -38.2382
   -38.2363 -38.2331 -38.2303 -38.2299 -38.2240 -38.2174 -38.2171 -38.2041
   -38.2024 -38.1978 -38.1969 -38.1819 -38.1754 -38.1735 -38.1669 -38.1614
   -38.1595 -38.1569 -38.1470 -38.1360 -38.1317 -38.1279 -38.1265 -38.1185
   -38.1169 -38.1075 -38.1050 -38.1026 -38.1012 -38.0859 -38.0844 -38.0812
   -38.0499 -38.0457 -38.0434 -38.0354 -38.0352 -38.0332 -38.0234 -38.0222
   -38.0202 -38.0182 -38.0165 -38.0008 -38.0002 -37.9962 -37.9952 -37.9892
   -37.9878 -37.9776 -37.9775 -37.9736 -37.9473 -37.9435 -37.9432 -37.9347
   -37.9343 -37.9315 -37.9212 -37.9137 -37.9052 -37.8919 -37.8851 -37.8851
   -37.7763 -37.7749 -37.7683 -37.7521 -37.7492 -37.7465 -37.7387 -37.7323
   -12.5135 -12.0864 -12.0647 -11.9301 -11.9292 -11.7980 -11.7115 -11.7094
   -11.6364 -11.6349 -11.5562 -11.4105 -11.4084 -11.3615 -11.3421 -11.3407
   -11.3304 -11.2769 -11.1117 -11.0915  -8.7861  -8.7860  -8.7747  -8.7340
    -7.8099  -3.0470  -3.0449  -3.0048  -2.8926  -2.8218  -2.8096  -2.7848
    -2.7809  -2.7792  -2.6648  -2.6626  -2.5137  -2.4738  -2.4276  -2.4229
    -2.4225  -2.3639  -2.3116  -2.2821  -2.2789  -2.2338  -2.0336  -1.8446
    -1.8425  -1.7999  -1.7083  -1.7064  -1.6517  -1.5575  -1.5575  -1.5148
    -1.4979  -1.4681  -1.4670  -1.4434  -1.3980  -1.3973  -1.3860  -1.3298
    -1.3287  -1.3126  -1.1988  -1.1574  -1.1392  -1.0910  -1.0369  -0.9827
    -0.9708  -0.9699  -0.9172  -0.9110  -0.9087  -0.8803  -0.8525  -0.8021
    -0.7304  -0.7297  -0.7083  -0.5803  -0.5368  -0.5362  -0.0687  -0.0684
     0.7027   1.1128   1.1445   1.1447   1.3838   1.3839   1.3935   1.3961
     1.4602   1.4789   1.4796   1.4987   1.5601   1.5987   1.6004   1.6131
     1.7150   1.7166   1.7600   1.9997   2.0000   2.0436   2.0940   2.0958
     2.1487   2.2008   2.2347   2.2370   2.2609   2.3588   2.3609   2.3771
     2.3880   2.3895   2.4523   2.4827   2.4836   2.5027   2.5237   2.5528
     2.6557   2.7360   2.7365   2.7989   2.9533   3.0025   3.0659   3.1358
     3.1366   3.1673   3.1731   3.2005   3.2978   3.3006   3.3258   3.3331
     3.3337   3.3753   3.4525   3.5269   3.5348   3.5452   3.5761   3.6216
     3.6368   3.6487   3.6570   3.6661   3.7130   3.7163   3.7194   3.8010
     3.9263   3.9412   3.9532   3.9607   3.9729   3.9792   3.9926   4.0832
     4.1082   4.1184   4.1792   4.1852   4.2114   4.2347   4.2379   4.2434
     4.2701   4.2964   4.3154   4.3158   4.3386   4.4163   4.4243   4.4298
     4.4342   4.5013   4.5097   4.6032   4.6282   4.6644   4.6753   4.7024
     4.7178   4.7221   4.7729   4.7837   4.8203   4.8631   4.8756   4.8782
     4.9109   4.9149   4.9393   5.0004   5.0218   5.0717   5.0785   5.1214
     5.1312   5.1692   5.2115   5.2361   5.2629   5.2928   5.3051   5.3837
     5.4021   5.4056   5.4063   5.4582   5.4839   5.4863   5.4957   5.5109
     5.5116   5.6119   5.6382   5.6503   5.6747   5.6869   5.6932   5.6977
     5.7068   5.7442   5.7478   5.7662   5.7723   5.8172   5.8250   5.8274
     5.8290   5.8715   5.8812   5.9022   5.9074   5.9138   5.9501   5.9554
     5.9595   5.9714   5.9790   5.9832   5.9968   5.9986   6.0280   6.1136
     6.1399   6.1427   6.1623   6.1848   6.1874   6.1910   6.1928   6.2446
     6.2496   6.2515   6.2527   6.3032   6.3346   6.3407   6.3430   6.3898
     6.4022   6.4064   6.4720   6.4747   6.4886   6.4949   6.5858   6.5908
     6.6091   6.6266   6.6350   6.6550   6.6767   6.6851   6.7343   6.7374

          k = 0.2500 0.1443 0.0000 (108355 PWs)   bands (ev):

   -67.0727 -67.0485 -67.0392 -67.0390 -67.0226 -67.0211 -67.0206 -67.0145
   -67.0060 -67.0041 -67.0037 -67.0002 -66.9998 -66.9994 -66.9931 -66.9923
   -66.9897 -66.9888 -66.9857 -66.9814 -66.9802 -66.9788 -66.9763 -66.9761
   -66.8202 -66.8025 -66.7959 -66.7956 -66.7827 -66.7823 -66.7783 -66.7716
   -66.7712 -66.7688 -66.7648 -66.7644 -66.7332 -66.7105 -66.7015 -66.6995
   -66.6848 -66.6841 -66.6627 -66.6602 -66.6596 -66.6571 -66.6520 -66.6510
   -38.8769 -38.8571 -38.8490 -38.8473 -38.7461 -38.7455 -38.7447 -38.7192
   -38.7100 -38.7019 -38.7016 -38.6989 -38.6727 -38.6575 -38.6436 -38.6405
   -38.6130 -38.6110 -38.6016 -38.5927 -38.5883 -38.5869 -38.5810 -38.5586
   -38.5425 -38.5418 -38.5404 -38.5188 -38.4593 -38.4582 -38.4534 -38.4485
   -38.4455 -38.4390 -38.4383 -38.4373 -38.4323 -38.4247 -38.4084 -38.4047
   -38.4037 -38.3951 -38.3895 -38.3885 -38.3657 -38.3584 -38.3476 -38.3436
   -38.3426 -38.3415 -38.3409 -38.3408 -38.3360 -38.3311 -38.3281 -38.3242
   -38.3217 -38.3208 -38.3142 -38.3092 -38.3088 -38.3029 -38.2942 -38.2914
   -38.2878 -38.2858 -38.2854 -38.2741 -38.2690 -38.2681 -38.2673 -38.2382
   -38.2363 -38.2331 -38.2303 -38.2299 -38.2240 -38.2174 -38.2171 -38.2041
   -38.2024 -38.1978 -38.1969 -38.1819 -38.1754 -38.1735 -38.1669 -38.1614
   -38.1595 -38.1569 -38.1470 -38.1360 -38.1316 -38.1279 -38.1265 -38.1185
   -38.1169 -38.1075 -38.1050 -38.1026 -38.1012 -38.0859 -38.0844 -38.0812
   -38.0499 -38.0457 -38.0434 -38.0354 -38.0352 -38.0332 -38.0234 -38.0222
   -38.0202 -38.0182 -38.0165 -38.0008 -38.0002 -37.9962 -37.9952 -37.9892
   -37.9878 -37.9776 -37.9775 -37.9736 -37.9473 -37.9435 -37.9432 -37.9347
   -37.9343 -37.9315 -37.9212 -37.9137 -37.9052 -37.8919 -37.8851 -37.8851
   -37.7763 -37.7749 -37.7683 -37.7521 -37.7493 -37.7465 -37.7387 -37.7323
   -12.5135 -12.0864 -12.0647 -11.9301 -11.9292 -11.7980 -11.7115 -11.7094
   -11.6364 -11.6349 -11.5562 -11.4105 -11.4084 -11.3615 -11.3421 -11.3407
   -11.3304 -11.2769 -11.1117 -11.0915  -8.7861  -8.7860  -8.7747  -8.7340
    -7.8099  -3.0470  -3.0449  -3.0048  -2.8926  -2.8218  -2.8096  -2.7848
    -2.7809  -2.7792  -2.6648  -2.6626  -2.5137  -2.4738  -2.4276  -2.4229
    -2.4225  -2.3639  -2.3116  -2.2821  -2.2789  -2.2338  -2.0336  -1.8447
    -1.8425  -1.7999  -1.7083  -1.7064  -1.6517  -1.5575  -1.5575  -1.5148
    -1.4979  -1.4681  -1.4670  -1.4434  -1.3980  -1.3973  -1.3860  -1.3298
    -1.3287  -1.3126  -1.1988  -1.1574  -1.1392  -1.0910  -1.0369  -0.9827
    -0.9708  -0.9699  -0.9172  -0.9110  -0.9087  -0.8803  -0.8525  -0.8021
    -0.7304  -0.7297  -0.7083  -0.5803  -0.5368  -0.5362  -0.0687  -0.0684
     0.7027   1.1128   1.1445   1.1447   1.3838   1.3839   1.3935   1.3961
     1.4602   1.4789   1.4796   1.4987   1.5601   1.5987   1.6004   1.6131
     1.7150   1.7166   1.7600   1.9997   2.0000   2.0436   2.0940   2.0958
     2.1487   2.2008   2.2347   2.2370   2.2609   2.3588   2.3609   2.3771
     2.3880   2.3895   2.4523   2.4827   2.4836   2.5027   2.5237   2.5528
     2.6557   2.7360   2.7365   2.7989   2.9533   3.0025   3.0659   3.1358
     3.1366   3.1673   3.1731   3.2005   3.2978   3.3006   3.3258   3.3331
     3.3337   3.3753   3.4525   3.5269   3.5348   3.5452   3.5761   3.6216
     3.6368   3.6487   3.6569   3.6661   3.7130   3.7163   3.7194   3.8010
     3.9263   3.9412   3.9532   3.9607   3.9729   3.9792   3.9926   4.0832
     4.1082   4.1184   4.1792   4.1852   4.2114   4.2347   4.2379   4.2434
     4.2701   4.2964   4.3154   4.3158   4.3386   4.4163   4.4243   4.4298
     4.4342   4.5013   4.5097   4.6032   4.6282   4.6644   4.6753   4.7024
     4.7178   4.7221   4.7729   4.7837   4.8204   4.8631   4.8756   4.8782
     4.9109   4.9149   4.9393   5.0004   5.0218   5.0717   5.0785   5.1214
     5.1312   5.1692   5.2115   5.2361   5.2630   5.2928   5.3051   5.3837
     5.4021   5.4056   5.4063   5.4582   5.4839   5.4863   5.4957   5.5109
     5.5116   5.6119   5.6382   5.6503   5.6747   5.6869   5.6932   5.6977
     5.7068   5.7442   5.7478   5.7662   5.7723   5.8172   5.8250   5.8274
     5.8290   5.8715   5.8812   5.9022   5.9074   5.9138   5.9501   5.9554
     5.9595   5.9714   5.9790   5.9832   5.9968   5.9986   6.0280   6.1136
     6.1399   6.1427   6.1623   6.1848   6.1874   6.1910   6.1928   6.2446
     6.2496   6.2515   6.2527   6.3032   6.3346   6.3407   6.3430   6.3898
     6.4022   6.4064   6.4720   6.4747   6.4886   6.4949   6.5858   6.5908
     6.6091   6.6265   6.6350   6.6549   6.6766   6.6851   6.7341   6.7374

          k = 0.5000-0.2887 0.0000 (108310 PWs)   bands (ev):

   -67.0630 -67.0627 -67.0413 -67.0411 -67.0160 -67.0155 -67.0134 -67.0129
   -67.0097 -67.0095 -67.0023 -67.0013 -67.0012 -67.0008 -66.9964 -66.9961
   -66.9857 -66.9843 -66.9838 -66.9832 -66.9800 -66.9790 -66.9778 -66.9771
   -66.8130 -66.8128 -66.7974 -66.7970 -66.7778 -66.7772 -66.7751 -66.7747
   -66.7701 -66.7697 -66.7668 -66.7666 -66.7321 -66.7114 -66.7038 -66.7001
   -66.6838 -66.6826 -66.6620 -66.6589 -66.6580 -66.6565 -66.6555 -66.6515
   -38.8680 -38.8672 -38.8446 -38.8430 -38.7401 -38.7378 -38.7348 -38.7335
   -38.7107 -38.7085 -38.7058 -38.7046 -38.6718 -38.6708 -38.6458 -38.6425
   -38.6097 -38.6065 -38.5992 -38.5985 -38.5945 -38.5914 -38.5736 -38.5715
   -38.5354 -38.5344 -38.5230 -38.5223 -38.4689 -38.4674 -38.4448 -38.4440
   -38.4381 -38.4377 -38.4292 -38.4289 -38.4175 -38.4171 -38.4067 -38.4058
   -38.4010 -38.4005 -38.3933 -38.3911 -38.3795 -38.3786 -38.3502 -38.3454
   -38.3451 -38.3448 -38.3408 -38.3404 -38.3398 -38.3368 -38.3342 -38.3271
   -38.3220 -38.3217 -38.3206 -38.3133 -38.3112 -38.3106 -38.2893 -38.2876
   -38.2772 -38.2684 -38.2668 -38.2649 -38.2614 -38.2593 -38.2580 -38.2556
   -38.2476 -38.2418 -38.2404 -38.2391 -38.2154 -38.2115 -38.2090 -38.2076
   -38.2046 -38.2045 -38.1918 -38.1910 -38.1782 -38.1746 -38.1721 -38.1607
   -38.1557 -38.1546 -38.1397 -38.1355 -38.1327 -38.1294 -38.1227 -38.1221
   -38.1147 -38.1134 -38.1003 -38.0970 -38.0956 -38.0910 -38.0711 -38.0702
   -38.0599 -38.0576 -38.0467 -38.0447 -38.0339 -38.0329 -38.0228 -38.0178
   -38.0175 -38.0151 -38.0111 -38.0084 -37.9960 -37.9937 -37.9927 -37.9904
   -37.9804 -37.9801 -37.9797 -37.9793 -37.9450 -37.9446 -37.9409 -37.9406
   -37.9307 -37.9302 -37.9212 -37.9210 -37.9030 -37.8900 -37.8878 -37.8860
   -37.7746 -37.7669 -37.7643 -37.7570 -37.7493 -37.7488 -37.7420 -37.7354
   -12.3369 -12.3362 -11.9647 -11.9637 -11.9503 -11.9491 -11.7192 -11.7172
   -11.5487 -11.5475 -11.4230 -11.4230 -11.4108 -11.4078 -11.3860 -11.3853
   -11.2034 -11.2021 -11.1841 -11.1841  -8.7877  -8.7876  -8.7531  -8.7530
    -7.8099  -3.0122  -3.0079  -2.9178  -2.9166  -2.8517  -2.8509  -2.8478
    -2.8459  -2.7241  -2.7235  -2.6074  -2.6061  -2.4444  -2.4410  -2.3790
    -2.3761  -2.3235  -2.3200  -2.1985  -2.1944  -2.1127  -2.1116  -1.9187
    -1.9181  -1.7801  -1.7748  -1.7323  -1.7306  -1.6491  -1.6434  -1.5208
    -1.5200  -1.5162  -1.5124  -1.3936  -1.3906  -1.3408  -1.3395  -1.3240
    -1.3218  -1.2075  -1.2073  -1.1264  -1.1258  -1.1094  -1.1091  -0.9799
    -0.9779  -0.9320  -0.9314  -0.9177  -0.9120  -0.8108  -0.8100  -0.7679
    -0.7474  -0.6987  -0.6974  -0.6825  -0.5609  -0.5599  -0.0692  -0.0687
     0.9465   0.9465   1.1324   1.1326   1.3624   1.3627   1.3839   1.3842
     1.4599   1.4600   1.4762   1.4762   1.6179   1.6181   1.6272   1.6314
     1.8536   1.8559   1.8610   1.8615   2.0339   2.0349   2.0712   2.0738
     2.1635   2.1652   2.2953   2.2966   2.3192   2.3199   2.3508   2.3514
     2.3896   2.3914   2.4016   2.4046   2.5108   2.5132   2.6812   2.6861
     2.7367   2.7388   2.7581   2.7599   2.9530   2.9557   2.9738   2.9746
     3.0443   3.0448   3.1388   3.1447   3.2625   3.2632   3.3235   3.3255
     3.3576   3.3603   3.4550   3.4559   3.5513   3.5614   3.6078   3.6086
     3.6698   3.6753   3.7506   3.7533   3.8069   3.8124   3.8415   3.8461
     3.8782   3.8796   3.9045   3.9222   3.9375   3.9444   4.0659   4.0789
     4.0875   4.0933   4.2142   4.2219   4.2225   4.2583   4.2619   4.2829
     4.2939   4.2981   4.2994   4.3113   4.3778   4.3949   4.4069   4.4110
     4.4141   4.4154   4.5432   4.5465   4.5495   4.5620   4.6148   4.6159
     4.6347   4.6354   4.7466   4.7590   4.9233   4.9269   4.9303   4.9329
     4.9343   4.9586   4.9989   5.0183   5.0523   5.0555   5.0717   5.0759
     5.1205   5.1220   5.2043   5.2309   5.2791   5.2804   5.2918   5.2938
     5.3737   5.3744   5.4039   5.4316   5.4560   5.4611   5.5002   5.5186
     5.5209   5.5274   5.5343   5.5548   5.6415   5.6439   5.6801   5.6804
     5.6983   5.7014   5.7111   5.7261   5.7680   5.7843   5.8090   5.8140
     5.8198   5.8344   5.8464   5.8509   5.9003   5.9172   5.9391   5.9414
     5.9752   5.9892   6.0135   6.0349   6.0882   6.0990   6.1044   6.1125
     6.1140   6.1202   6.1289   6.1358   6.1457   6.1496   6.2773   6.2793
     6.2832   6.2883   6.3218   6.3268   6.3631   6.3646   6.3812   6.3841
     6.3988   6.4038   6.4316   6.4333   6.5502   6.5533   6.5581   6.5590
     6.5908   6.5978   6.6497   6.6533   6.7868   6.7917   6.7980   6.8026

          k =-0.5000-0.2887 0.0000 (108310 PWs)   bands (ev):

   -67.0630 -67.0627 -67.0413 -67.0411 -67.0160 -67.0155 -67.0134 -67.0129
   -67.0097 -67.0094 -67.0023 -67.0013 -67.0012 -67.0008 -66.9964 -66.9961
   -66.9857 -66.9843 -66.9838 -66.9832 -66.9800 -66.9790 -66.9778 -66.9771
   -66.8130 -66.8128 -66.7974 -66.7970 -66.7778 -66.7772 -66.7751 -66.7747
   -66.7701 -66.7697 -66.7668 -66.7666 -66.7321 -66.7114 -66.7037 -66.7001
   -66.6838 -66.6826 -66.6620 -66.6589 -66.6580 -66.6565 -66.6554 -66.6515
   -38.8680 -38.8672 -38.8446 -38.8430 -38.7401 -38.7378 -38.7348 -38.7335
   -38.7107 -38.7085 -38.7058 -38.7046 -38.6718 -38.6708 -38.6458 -38.6425
   -38.6097 -38.6065 -38.5992 -38.5985 -38.5945 -38.5914 -38.5736 -38.5715
   -38.5354 -38.5344 -38.5230 -38.5223 -38.4689 -38.4674 -38.4448 -38.4440
   -38.4381 -38.4377 -38.4292 -38.4289 -38.4175 -38.4171 -38.4067 -38.4058
   -38.4010 -38.4005 -38.3933 -38.3911 -38.3795 -38.3786 -38.3502 -38.3454
   -38.3451 -38.3448 -38.3408 -38.3404 -38.3398 -38.3368 -38.3342 -38.3271
   -38.3220 -38.3217 -38.3206 -38.3133 -38.3112 -38.3106 -38.2893 -38.2876
   -38.2772 -38.2684 -38.2668 -38.2649 -38.2614 -38.2593 -38.2580 -38.2557
   -38.2476 -38.2418 -38.2404 -38.2391 -38.2154 -38.2115 -38.2090 -38.2076
   -38.2046 -38.2045 -38.1918 -38.1910 -38.1782 -38.1746 -38.1721 -38.1607
   -38.1557 -38.1546 -38.1397 -38.1354 -38.1327 -38.1294 -38.1227 -38.1221
   -38.1147 -38.1134 -38.1003 -38.0970 -38.0956 -38.0910 -38.0711 -38.0702
   -38.0598 -38.0576 -38.0467 -38.0447 -38.0339 -38.0330 -38.0228 -38.0178
   -38.0175 -38.0151 -38.0111 -38.0084 -37.9960 -37.9937 -37.9927 -37.9904
   -37.9804 -37.9801 -37.9797 -37.9793 -37.9450 -37.9446 -37.9409 -37.9406
   -37.9307 -37.9302 -37.9212 -37.9210 -37.9030 -37.8900 -37.8878 -37.8860
   -37.7745 -37.7669 -37.7643 -37.7571 -37.7493 -37.7488 -37.7420 -37.7354
   -12.3368 -12.3362 -11.9647 -11.9637 -11.9503 -11.9491 -11.7192 -11.7172
   -11.5487 -11.5475 -11.4230 -11.4230 -11.4108 -11.4079 -11.3860 -11.3853
   -11.2034 -11.2021 -11.1841 -11.1841  -8.7877  -8.7876  -8.7531  -8.7530
    -7.8099  -3.0122  -3.0079  -2.9178  -2.9166  -2.8517  -2.8509  -2.8478
    -2.8459  -2.7241  -2.7235  -2.6074  -2.6061  -2.4444  -2.4410  -2.3790
    -2.3761  -2.3235  -2.3200  -2.1985  -2.1944  -2.1127  -2.1116  -1.9187
    -1.9181  -1.7801  -1.7748  -1.7323  -1.7306  -1.6491  -1.6434  -1.5208
    -1.5200  -1.5162  -1.5124  -1.3936  -1.3906  -1.3408  -1.3395  -1.3240
    -1.3218  -1.2075  -1.2074  -1.1264  -1.1257  -1.1094  -1.1090  -0.9799
    -0.9779  -0.9320  -0.9314  -0.9177  -0.9120  -0.8108  -0.8100  -0.7678
    -0.7474  -0.6986  -0.6974  -0.6825  -0.5609  -0.5599  -0.0692  -0.0687
     0.9465   0.9465   1.1324   1.1326   1.3624   1.3628   1.3839   1.3842
     1.4599   1.4600   1.4762   1.4762   1.6179   1.6181   1.6272   1.6314
     1.8536   1.8559   1.8610   1.8615   2.0339   2.0349   2.0712   2.0738
     2.1635   2.1652   2.2953   2.2966   2.3192   2.3199   2.3508   2.3514
     2.3896   2.3914   2.4016   2.4046   2.5108   2.5132   2.6812   2.6861
     2.7366   2.7388   2.7581   2.7599   2.9530   2.9557   2.9738   2.9746
     3.0443   3.0448   3.1388   3.1447   3.2625   3.2632   3.3235   3.3256
     3.3576   3.3603   3.4550   3.4559   3.5513   3.5614   3.6078   3.6085
     3.6698   3.6753   3.7506   3.7533   3.8069   3.8124   3.8415   3.8461
     3.8782   3.8796   3.9045   3.9222   3.9376   3.9444   4.0660   4.0789
     4.0875   4.0933   4.2142   4.2219   4.2224   4.2583   4.2618   4.2829
     4.2939   4.2981   4.2994   4.3113   4.3778   4.3949   4.4069   4.4110
     4.4141   4.4154   4.5433   4.5465   4.5495   4.5620   4.6148   4.6159
     4.6347   4.6353   4.7466   4.7590   4.9233   4.9269   4.9303   4.9329
     4.9343   4.9586   4.9989   5.0183   5.0523   5.0555   5.0717   5.0759
     5.1205   5.1220   5.2043   5.2309   5.2791   5.2804   5.2918   5.2938
     5.3737   5.3744   5.4039   5.4315   5.4560   5.4611   5.5002   5.5186
     5.5209   5.5274   5.5342   5.5548   5.6415   5.6439   5.6801   5.6804
     5.6983   5.7014   5.7111   5.7261   5.7680   5.7843   5.8090   5.8140
     5.8198   5.8344   5.8464   5.8509   5.9003   5.9172   5.9391   5.9414
     5.9752   5.9892   6.0135   6.0349   6.0882   6.0990   6.1044   6.1125
     6.1140   6.1202   6.1289   6.1358   6.1457   6.1496   6.2773   6.2793
     6.2832   6.2883   6.3218   6.3268   6.3631   6.3646   6.3812   6.3841
     6.3988   6.4038   6.4316   6.4333   6.5501   6.5533   6.5581   6.5590
     6.5908   6.5978   6.6497   6.6533   6.7866   6.7916   6.7975   6.8027

          k =-0.2500 0.4330 0.0000 (108308 PWs)   bands (ev):

   -67.0660 -67.0541 -67.0538 -67.0302 -67.0220 -67.0179 -67.0125 -67.0099
   -67.0095 -67.0073 -67.0071 -67.0013 -67.0009 -66.9976 -66.9963 -66.9941
   -66.9901 -66.9849 -66.9824 -66.9819 -66.9799 -66.9790 -66.9778 -66.9773
   -66.8153 -66.8064 -66.8063 -66.7897 -66.7831 -66.7769 -66.7737 -66.7735
   -66.7698 -66.7694 -66.7675 -66.7667 -66.7321 -66.7105 -66.7061 -66.6984
   -66.6839 -66.6829 -66.6609 -66.6601 -66.6581 -66.6572 -66.6541 -66.6519
   -38.8702 -38.8589 -38.8576 -38.8360 -38.7403 -38.7401 -38.7344 -38.7299
   -38.7153 -38.7079 -38.7043 -38.7031 -38.6723 -38.6631 -38.6630 -38.6234
   -38.6173 -38.6056 -38.6053 -38.5998 -38.5983 -38.5816 -38.5792 -38.5662
   -38.5313 -38.5306 -38.5297 -38.5185 -38.4947 -38.4473 -38.4470 -38.4463
   -38.4378 -38.4346 -38.4251 -38.4226 -38.4218 -38.4160 -38.4156 -38.4070
   -38.4006 -38.3941 -38.3937 -38.3922 -38.3756 -38.3700 -38.3687 -38.3496
   -38.3466 -38.3447 -38.3423 -38.3381 -38.3342 -38.3315 -38.3280 -38.3276
   -38.3252 -38.3227 -38.3188 -38.3137 -38.3105 -38.3092 -38.3084 -38.2754
   -38.2750 -38.2714 -38.2694 -38.2624 -38.2613 -38.2594 -38.2567 -38.2498
   -38.2485 -38.2438 -38.2429 -38.2405 -38.2172 -38.2103 -38.2093 -38.2030
   -38.2005 -38.1994 -38.1984 -38.1940 -38.1883 -38.1707 -38.1701 -38.1597
   -38.1559 -38.1548 -38.1381 -38.1377 -38.1346 -38.1295 -38.1280 -38.1232
   -38.1146 -38.1028 -38.1026 -38.0979 -38.0932 -38.0806 -38.0795 -38.0752
   -38.0602 -38.0488 -38.0486 -38.0437 -38.0352 -38.0316 -38.0253 -38.0214
   -38.0191 -38.0136 -38.0130 -38.0075 -37.9958 -37.9929 -37.9922 -37.9889
   -37.9847 -37.9831 -37.9749 -37.9747 -37.9495 -37.9490 -37.9377 -37.9367
   -37.9351 -37.9257 -37.9255 -37.9179 -37.9032 -37.8903 -37.8867 -37.8866
   -37.7722 -37.7703 -37.7631 -37.7585 -37.7516 -37.7437 -37.7437 -37.7353
   -12.3933 -12.1802 -12.1796 -11.9860 -11.8519 -11.8506 -11.8028 -11.6350
   -11.6093 -11.4990 -11.4802 -11.4794 -11.4638 -11.3990 -11.2875 -11.2857
   -11.2644 -11.2639 -11.1751 -11.1563  -8.7963  -8.7689  -8.7688  -8.7473
    -7.8099  -3.0612  -2.9628  -2.9611  -2.9449  -2.8335  -2.8319  -2.7913
    -2.7560  -2.7042  -2.6909  -2.6685  -2.6669  -2.6223  -2.4315  -2.2992
[...]
     6.5817   6.6248   6.6526   6.6541   6.6638   6.7237   6.7786   6.7792

          k = 0.5000-0.0000 0.0000 (108308 PWs)   bands (ev):

   -67.0817 -67.0703 -67.0697 -67.0471 -67.0393 -67.0310 -67.0304 -67.0260
   -67.0253 -67.0225 -67.0224 -67.0201 -67.0201 -67.0168 -67.0157 -67.0062
   -67.0017 -66.9959 -66.9929 -66.9927 -66.9900 -66.9891 -66.9877 -66.9872
   -66.8391 -66.8311 -66.8310 -66.8202 -66.7936 -66.7892 -66.7885 -66.7883
   -66.7835 -66.7833 -66.7829 -66.7808 -66.7343 -66.7275 -66.7254 -66.7172
   -66.6850 -66.6832 -66.6792 -66.6774 -66.6739 -66.6736 -66.6723 -66.6710
   -38.8737 -38.8615 -38.8604 -38.8399 -38.7472 -38.7472 -38.7409 -38.7357
   -38.7242 -38.7208 -38.7195 -38.7195 -38.6855 -38.6728 -38.6727 -38.6357
   -38.6314 -38.6247 -38.6246 -38.6210 -38.6099 -38.6060 -38.6059 -38.6013
   -38.5455 -38.5447 -38.5444 -38.5386 -38.5298 -38.5221 -38.5214 -38.5208
   -38.5079 -38.4482 -38.4454 -38.4441 -38.4437 -38.4307 -38.4306 -38.4191
   -38.4165 -38.4123 -38.4120 -38.4073 -38.3917 -38.3838 -38.3833 -38.3793
   -38.3792 -38.3749 -38.3721 -38.3697 -38.3598 -38.3598 -38.3534 -38.3516
   -38.3443 -38.3428 -38.3371 -38.3276 -38.3265 -38.3223 -38.3222 -38.2942
   -38.2938 -38.2911 -38.2900 -38.2891 -38.2784 -38.2782 -38.2743 -38.2606
   -38.2585 -38.2573 -38.2572 -38.2544 -38.2335 -38.2269 -38.2268 -38.2187
   -38.2170 -38.2156 -38.2154 -38.2084 -38.2043 -38.1828 -38.1824 -38.1808
   -38.1549 -38.1540 -38.1468 -38.1467 -38.1417 -38.1405 -38.1376 -38.1373
   -38.1151 -38.1087 -38.1027 -38.1012 -38.1005 -38.0866 -38.0859 -38.0853
   -38.0689 -38.0543 -38.0521 -38.0500 -38.0395 -38.0386 -38.0320 -38.0310
   -38.0264 -38.0254 -38.0245 -38.0131 -38.0091 -38.0061 -38.0058 -38.0038
   -38.0024 -38.0012 -37.9959 -37.9958 -37.9573 -37.9573 -37.9516 -37.9462
   -37.9442 -37.9353 -37.9352 -37.9273 -37.9144 -37.9100 -37.9091 -37.9090
   -37.7841 -37.7825 -37.7807 -37.7710 -37.7672 -37.7577 -37.7564 -37.7506
   -12.3601 -12.1459 -12.1453 -11.9597 -11.8164 -11.8163 -11.7776 -11.6141
   -11.5351 -11.4739 -11.4546 -11.4543 -11.3926 -11.3824 -11.2664 -11.2645
   -11.1775 -11.1771 -11.1554 -11.0599  -9.3401  -9.2908  -9.2907  -9.2511
    -6.9679  -3.0370  -2.9337  -2.9327  -2.9143  -2.7998  -2.7996  -2.7499
    -2.7216  -2.6633  -2.6598  -2.6294  -2.6285  -2.5811  -2.4056  -2.2640
    -2.2571  -2.2569  -2.2085  -2.1706  -2.1700  -2.1229  -2.1221  -1.9942
    -1.8085  -1.8082  -1.7295  -1.7079  -1.6396  -1.5697  -1.5693  -1.4993
    -1.4508  -1.4459  -1.4187  -1.4181  -1.4143  -1.4034  -1.3407  -1.2234
    -1.2232  -1.1789  -1.1787  -1.1459  -1.1001  -0.9963  -0.9871  -0.9857
    -0.9318  -0.9197  -0.8955  -0.8808  -0.8668  -0.8664  -0.7700  -0.7681
    -0.7000  -0.5897  -0.5770  -0.5766  -0.4360   0.5255   0.6267   0.6271
     0.6642   0.7200   0.7202   0.7580   0.9555   0.9584   1.0034   1.0061
     1.0065   1.0650   1.0713   1.0715   1.2690   1.4089   1.4104   1.6122
     1.7649   1.8725   1.8733   1.9026   1.9741   1.9761   1.9886   1.9889
     2.0774   2.1574   2.1577   2.2250   2.2986   2.2994   2.3332   2.3337
     2.3751   2.4338   2.4903   2.5029   2.5033   2.5928   2.5932   2.6474
     2.7195   2.7201   2.7313   2.7567   2.8326   2.8335   2.8504   2.9378
     3.0794   3.1674   3.2132   3.2142   3.2592   3.2603   3.2791   3.3534
     3.3606   3.3617   3.3724   3.4618   3.4641   3.4784   3.5642   3.6317
     3.6366   3.6665   3.6713   3.7004   3.7030   3.7695   3.7714   3.7852
     3.9522   3.9536   3.9572   3.9827   3.9852   3.9982   4.0005   4.0347
     4.0638   4.1168   4.1344   4.1482   4.1498   4.2142   4.2176   4.2188
     4.2560   4.2604   4.3051   4.3323   4.3538   4.3550   4.3740   4.3760
     4.4694   4.4710   4.4936   4.5058   4.5144   4.5178   4.5318   4.5822
     4.6110   4.7531   4.7733   4.7738   4.8122   4.8152   4.8388   4.8498
     4.8774   4.9475   4.9628   4.9682   5.0470   5.0506   5.0897   5.1078
     5.1081   5.1733   5.2132   5.2378   5.2587   5.2607   5.2954   5.3422
     5.3591   5.3598   5.3653   5.4006   5.4127   5.4341   5.4351   5.5177
     5.5202   5.5236   5.5523   5.6462   5.6532   5.6535   5.6538   5.6664
     5.6998   5.7000   5.7011   5.7193   5.7331   5.7855   5.7874   5.7875
     5.7960   5.8089   5.8280   5.8431   5.8465   5.8824   5.9086   5.9552
     5.9573   5.9725   5.9929   5.9969   6.0222   6.0248   6.0424   6.1089
     6.1102   6.1266   6.1544   6.1558   6.1858   6.2151   6.2210   6.2381
     6.2741   6.2770   6.2831   6.2916   6.3771   6.3892   6.3902   6.4340
     6.4377   6.4382   6.4843   6.4843   6.5239   6.5636   6.5770   6.5797
     6.5817   6.6248   6.6526   6.6541   6.6638   6.7237   6.7786   6.7792

     the Fermi energy is     5.1157 ev

!    total energy              =  -12616.46581641 Ry
     total all-electron energy =   -103594.969623 Ry
     estimated scf accuracy    <          9.0E-11 Ry
     smearing contrib. (-TS)   =       0.00921811 Ry
     internal energy E=F+TS    =  -12616.47503452 Ry

     The total energy is F=E-TS. E is the sum of the following terms:
     one-electron contribution =  -66864.52726289 Ry
     hartree contribution      =   33543.85327138 Ry
     xc contribution           =   -1216.01373864 Ry
     ewald contribution        =   25682.57193804 Ry
     DFT-D3 Dispersion         =      -1.07772775 Ry
     one-center paw contrib.   =   -3761.28151466 Ry

     convergence has been achieved in  37 iterations

     negative rho (up, down):  1.523E-04 0.000E+00

     Forces acting on atoms (cartesian axes, Ry/au):

     atom    1 type  1   force =    -0.00018008   -0.00023629    0.00015874
     atom    2 type  1   force =    -0.00012827   -0.00028218    0.00014421
     atom    3 type  1   force =    -0.00001859   -0.00004296    0.00019496
     atom    4 type  1   force =    -0.00007384   -0.00012983   -0.00016287
     atom    5 type  1   force =    -0.00000634    0.00018976   -0.00011438
     atom    6 type  1   force =     0.00015998    0.00009467   -0.00013885
     atom    7 type  2   force =     0.00005796    0.00013391    0.00027698
     atom    8 type  2   force =    -0.00001101   -0.00007999    0.00008204
     atom    9 type  2   force =    -0.00005621   -0.00004878    0.00009473
     atom   10 type  1   force =     0.00022044    0.00004638   -0.00014119
     atom   11 type  1   force =    -0.00005135    0.00022464   -0.00012488
     atom   12 type  1   force =    -0.00013469   -0.00022196   -0.00051620
     atom   13 type  1   force =     0.00010414    0.00016444   -0.00003797
     atom   14 type  1   force =    -0.00009666   -0.00031941    0.00052582
     atom   15 type  1   force =    -0.00022264   -0.00025547    0.00055599
     atom   16 type  2   force =    -0.00002889   -0.00008739   -0.00001437
     atom   17 type  2   force =    -0.00000941    0.00020422   -0.00022341
     atom   18 type  2   force =     0.00018262    0.00009519   -0.00024672
     atom   19 type  1   force =     0.00030874    0.00003031    0.00014451
     atom   20 type  1   force =    -0.00039145    0.00000202   -0.00003140
     atom   21 type  1   force =    -0.00018023    0.00025242    0.00014364
     atom   22 type  1   force =     0.00000218   -0.00018486   -0.00013834
     atom   23 type  1   force =    -0.00016192    0.00009075   -0.00013810
     atom   24 type  1   force =     0.00004160   -0.00000641    0.00003655
     atom   25 type  2   force =    -0.00014437   -0.00001689    0.00027680
     atom   26 type  2   force =    -0.00006359    0.00004951    0.00008112
     atom   27 type  2   force =    -0.00000000    0.00000000   -0.00029363
     atom   28 type  1   force =    -0.00016884   -0.00015626   -0.00012349
     atom   29 type  1   force =     0.00013188   -0.00000350   -0.00039144
     atom   30 type  1   force =     0.00021886   -0.00006838   -0.00012468
     atom   31 type  1   force =    -0.00011082    0.00032155    0.00055553
     atom   32 type  1   force =     0.00033321   -0.00006417    0.00055658
     atom   33 type  1   force =    -0.00009207    0.00000827    0.00026712
     atom   34 type  2   force =     0.00008964    0.00001869   -0.00001435
     atom   35 type  2   force =     0.00018124   -0.00009379   -0.00022341
     atom   36 type  2   force =    -0.00000030    0.00000073    0.00033285
     atom   37 type  1   force =     0.00019419   -0.00034006   -0.00003161
     atom   38 type  1   force =    -0.00011443    0.00027362    0.00015932
     atom   39 type  1   force =     0.00029416   -0.00003810    0.00015930
     atom   40 type  1   force =    -0.00016110   -0.00010028   -0.00011385
     atom   41 type  1   force =    -0.00001559    0.00003948    0.00003613
     atom   42 type  1   force =     0.00016749   -0.00008923   -0.00011329
     atom   43 type  2   force =     0.00008674   -0.00011723    0.00027682
     atom   44 type  2   force =     0.00000020    0.00000014   -0.00025123
     atom   45 type  2   force =     0.00007046   -0.00002445    0.00009498
     atom   46 type  1   force =    -0.00006350    0.00011496   -0.00039169
     atom   47 type  1   force =    -0.00007000   -0.00021325   -0.00014043
     atom   48 type  1   force =    -0.00015029    0.00016721   -0.00014077
     atom   49 type  1   force =     0.00032416    0.00007532    0.00052668
     atom   50 type  1   force =     0.00003830   -0.00008402    0.00026713
     atom   51 type  1   force =    -0.00022767    0.00024263    0.00052636
     atom   52 type  2   force =    -0.00006110    0.00006911   -0.00001424
     atom   53 type  2   force =    -0.00000017   -0.00000030    0.00027593
     atom   54 type  2   force =    -0.00017455    0.00011041   -0.00024645
     atom   55 type  1   force =    -0.00002767    0.00003761    0.00019413
     atom   56 type  1   force =     0.00004601    0.00000554    0.00019358
     atom   57 type  1   force =     0.00019743    0.00033825   -0.00003217
     atom   58 type  1   force =    -0.00002657   -0.00003352    0.00003612
     atom   59 type  1   force =    -0.00007466    0.00012902   -0.00016265
     atom   60 type  1   force =     0.00014945    0.00000046   -0.00016335
     atom   61 type  2   force =    -0.00000005    0.00000021    0.00009400
     atom   62 type  2   force =     0.00007449    0.00003039    0.00008158
     atom   63 type  2   force =    -0.00001413    0.00007317    0.00009453
     atom   64 type  1   force =    -0.00012432    0.00022895   -0.00051679
     atom   65 type  1   force =     0.00026027   -0.00000660   -0.00051658
     atom   66 type  1   force =    -0.00006858   -0.00011227   -0.00039117
     atom   67 type  1   force =     0.00005369    0.00007590    0.00026648
     atom   68 type  1   force =     0.00009106   -0.00017308   -0.00003848
     atom   69 type  1   force =    -0.00019524    0.00000779   -0.00003862
     atom   70 type  2   force =     0.00000024   -0.00000034   -0.00076127
     atom   71 type  2   force =    -0.00017175   -0.00011004   -0.00022330
     atom   72 type  2   force =    -0.00000787   -0.00020642   -0.00024675
     atom   73 type  3   force =     0.00000079   -0.00002285    0.00037828
     atom   74 type  4   force =    -0.00000012    0.00000114    0.00066029
     atom   75 type  4   force =     0.00009407   -0.00058101   -0.00034275
     atom   76 type  4   force =     0.00047256    0.00038560   -0.00033590
     atom   77 type  4   force =    -0.00056731    0.00021720   -0.00033676

     Total force =     0.003223     Total SCF correction =     0.000061
     Energy error            =      3.1E-05 Ry
     Gradient error          =      7.6E-04 Ry/Bohr

     bfgs converged in  31 scf cycles and  30 bfgs steps
     (criteria: energy <  1.0E-04 Ry, force <  1.0E-03 Ry/Bohr)

     End of BFGS Geometry Optimization

     Final energy             =  -12616.4658164142 Ry

     File tmp/CH4-H13_Rot0_hollow_/CH4-H13_Rot0_hollow_.bfgs deleted, as requested
Begin final coordinates

ATOMIC_POSITIONS (angstrom)
Cr              -1.5954477361        2.7659455551        8.1723615820
Cr               3.1932504257        0.0015376498        8.1726941617
Cr               0.7795149410        1.3504734384        8.1724940361
Cr               1.6302496196        2.8236356232        6.0441205936
Cr              -0.7456584730        1.2910981823        6.0445338979
Cr               1.4911584222       -0.0003578292        6.0450038725
N                0.0000954609       -0.0004871161        5.0014680944
N                2.3758822261        1.3724425390        7.0303282488
N                0.0004789126        2.7438122752        7.0300233481
Cr              -1.6484231600        2.8510040057       12.4473504519
Cr               3.2927306756       -0.0022909461       12.4469392258
Cr               0.7281243215        1.2607987940       12.4475787750
Cr               1.5939985240        2.7611392411       10.3711923332
Cr              -0.7805848572        1.3535879325       10.3667466554
Cr               1.5624395078        0.0010693122       10.3662707658
N               -0.0001898193        0.0002490392        9.2565724400
N                2.3753512822        1.3702719650       11.4906836461
N               -0.0010046700        2.7421096098       11.4911262854
Cr              -3.9736364200        6.8794729262        8.1726956138
Cr               0.8188982783        4.1147029399        8.1742923395
Cr              -1.5952936397        5.4634126836        8.1726953166
Cr              -0.7458887586        6.9384100463        6.0450024129
Cr              -3.1209524200        5.4063683603        6.0450034533
Cr              -0.8838002466        4.1149329659        6.0429947477
N               -2.3753103474        4.1151348701        5.0014675504
N                0.0006294373        5.4858201755        7.0303321376
N               -2.3756827832        6.8580106548        7.0324506308
Cr              -4.0200593524        6.9675342500       12.4469348154
Cr               0.9112496297        4.1148932275       12.4482471383
Cr              -1.6483438340        5.3791779388       12.4469406670
Cr              -0.7802890020        6.8759686415       10.3662719133
Cr              -3.1578259862        5.4673817827       10.3662697499
Cr              -0.8131622458        4.1146230778       10.3688101990
N               -2.3757966667        4.1145181616        9.2565715824
N               -0.0009817206        5.4873662093       11.4906828723
N               -2.3756807964        6.8580090593       11.4849444600
Cr               3.1541709680        2.7666410379        8.1742933267
Cr               7.9444751145       -0.0012684353        8.1723628331
Cr               5.5294037556        1.3501370231        8.1723619260
Cr               6.3817621641        2.8234999698        6.0445338522
Cr               4.0053224562        1.2919489339        6.0429966356
Cr               6.2423243420        0.0002131391        6.0445329091
N                4.7509020453        0.0001638044        5.0014678467
N                7.1270556009        1.3716041244        7.0315158924
N                4.7506074426        2.7433171059        7.0300250462
Cr               3.1078374654        2.8465268699       12.4482441689
Cr               8.0446225496        0.0020767156       12.4473476165
Cr               5.4822302892        1.2617333020       12.4473490738
Cr               6.3451134800        2.7620077926       10.3667446822
Cr               3.9702723795        1.3532761449       10.3688093894
Cr               6.3139039244       -0.0007781911       10.3667449923
N                4.7516798988        0.0000460704        9.2565711640
N                7.1270582033        1.3716053742       11.4861393990
N                4.7528290360        2.7428827057       11.4911215894
Cr               0.7797877406        6.8792987239        8.1724966529
Cr               5.5677575850        4.1146491608        8.1724984961
Cr               3.1539920052        5.4630785143        8.1742960282
Cr               4.0055367718        6.9375408607        6.0429983538
Cr               1.6302151198        5.4059617703        6.0441215764
Cr               3.8665932392        4.1148285680        6.0441238331
N                2.3756873207        4.1148087403        5.0010285265
N                4.7505483172        5.4861595409        7.0303330820
N                2.3759724089        6.8572940699        7.0300271003
Cr               0.7278252031        6.9686378896       12.4475834264
Cr               5.6711078581        4.1149826926       12.4475812503
Cr               3.1079811468        5.3830084034       12.4482438545
Cr               3.9699504743        6.8765228616       10.3688083346
Cr               1.5942194728        5.4686059181       10.3711903737
Cr               3.9388449652        4.1146791980       10.3711888679
N                2.3756858191        4.1148077530        9.2616270132
N                4.7526928675        5.4867830711       11.4906788591
N                2.3752371569        6.8594337123       11.4911221564
C                2.3756464478        4.1147860645       16.4148644928
H                2.3756604858        4.1146183742       15.3147725116
H                2.5097908447        3.0897000957       16.7776685441
H                3.1963529793        4.7435688930       16.7774311568
H                1.4207839254        4.5112193745       16.7774446721
End final coordinates



     Writing all to output data dir tmp/CH4-H13_Rot0_hollow_/CH4-H13_Rot0_hollow_.save/ :
     XML data file, charge density, pseudopotentials, collected wavefunctions
 
     init_run     :     18.09s CPU     18.90s WALL (       1 calls)
     electrons    :  50034.95s CPU  51381.23s WALL (      31 calls)
     update_pot   :     37.82s CPU     39.56s WALL (      30 calls)
     forces       :    311.50s CPU    322.98s WALL (      31 calls)
     force_dftd3  :      6.75s CPU      7.09s WALL (      31 calls)

     Called by init_run:
     wfcinit      :     13.90s CPU     14.31s WALL (       1 calls)
     potinit      :      1.04s CPU      1.18s WALL (       1 calls)
     hinit0       :      0.35s CPU      0.39s WALL (       1 calls)

     Called by electrons:
     c_bands      :  41275.43s CPU  42140.77s WALL (    1257 calls)
     sum_band     :   6889.52s CPU   7135.94s WALL (    1257 calls)
     v_of_rho     :    729.60s CPU    783.70s WALL (    1279 calls)
     newd         :    549.07s CPU    707.99s WALL (    1279 calls)
     PAW_pot      :    457.45s CPU    463.32s WALL (    1309 calls)
     mix_rho      :    102.23s CPU    110.34s WALL (    1257 calls)
     energy_dftd3 :      3.62s CPU      3.64s WALL (      31 calls)

     Called by c_bands:
     init_us_2    :    717.09s CPU    726.24s WALL (    7728 calls)
     cegterg      :  38538.26s CPU  39380.19s WALL (    3772 calls)

     Called by *egterg:
     cdiaghg      :   1401.22s CPU   1416.91s WALL (   13859 calls)
     h_psi        :  18826.51s CPU  19191.30s WALL (   13979 calls)
     s_psi        :   4419.77s CPU   4465.91s WALL (   13979 calls)
     g_psi        :     86.89s CPU     88.05s WALL (   10204 calls)

     Called by h_psi:
     h_psi:calbec :   4468.28s CPU   4515.17s WALL (   13979 calls)
     vloc_psi     :   9768.76s CPU   9932.00s WALL (   13979 calls)
                                        0.00s GPU  (   13979 calls)
     add_vuspsi   :   4435.58s CPU   4482.60s WALL (   13979 calls)

     General routines
     calbec       :   6759.99s CPU   6829.64s WALL (   18212 calls)
     fft          :    583.25s CPU    633.68s WALL (   16945 calls)
     ffts         :      7.59s CPU      8.84s WALL (    2536 calls)
     fftw         :   9469.33s CPU   9619.46s WALL ( 9526436 calls)
     interpolate  :     42.20s CPU     47.10s WALL (    1279 calls)
 
     Parallel routines
 
     PWSCF        :     14h 1m CPU     14h24m WALL

 
   This run was terminated on:   3:43:51   4Jun2026            

=------------------------------------------------------------------------------=
   JOB DONE.
=------------------------------------------------------------------------------=
