
     Program PWSCF v.7.5 starts on  8Jun2026 at 19:41:10 

     This program is part of the open-source Quantum ESPRESSO suite
     for quantum simulation of materials; please cite
         "P. Giannozzi et al., J. Phys.:Condens. Matter 21 395502 (2009);
         "P. Giannozzi et al., J. Phys.:Condens. Matter 29 465901 (2017);
         "P. Giannozzi et al., J. Chem. Phys. 152 154105 (2020);
          URL http://www.quantum-espresso.org", 
     in publications or presentations arising from this work. More details at
     http://www.quantum-espresso.org/quote

     Parallel version (MPI & OpenMP), running on      64 processor cores
     Number of MPI processes:                64
     Threads/MPI process:                     1

     MPI processes distributed on     1 nodes
     1012902 MiB available memory on the printing compute node when the environment starts
 
     Reading input from generated_inputs/adsorcion/pw-CH4-H13_Rot30_hollow_.in
Warning: card &CELL ignored

     Current dimensions of program PWSCF are:
     Max number of different atomic species (ntypx) = 10
     Max number of k-points (npk) =  40000
     Max angular momentum in pseudopotentials (lmaxx) =  4
     file Cr.pbe-spn-kjpaw_psl.1.0.0.UPF: wavefunction(s)  3S 3P 3D renormalized
     file N.pbe-n-kjpaw_psl.1.0.0.UPF: wavefunction(s)  2S renormalized
     file C.pbe-n-kjpaw_psl.1.0.0.UPF: wavefunction(s)  2S 2P renormalized
     file H.pbe-kjpaw_psl.1.0.0.UPF: wavefunction(s)  1S renormalized
 
     K-points division:     npool     =       4
     R & G space division:  proc/nbgrp/npool/nimage =      16
     Subspace diagonalization in iterative solution of the eigenvalue problem:
     one sub-group per band group will be used
     scalapack distributed-memory algorithm (size of sub-group:  4*  4 procs)

 
     Parallelization info
     --------------------
     sticks:   dense  smooth     PW     G-vecs:    dense   smooth      PW
     Min        1166     388    104               281408    54158    7640
     Max        1167     389    105               281417    54165    7647
     Sum       18661    6217   1675              4502593   866593  122299
 
     Using Slab Decomposition
 


     bravais-lattice index     =            0
     lattice parameter (alat)  =      17.9576  a.u.
     unit-cell volume          =   10952.5767 (a.u.)^3
     number of atoms/cell      =           77
     number of atomic types    =            4
     number of electrons       =       800.00
     number of Kohn-Sham states=          480
     kinetic-energy cutoff     =      70.0000  Ry
     charge density cutoff     =     840.0000  Ry
     scf convergence threshold =      1.0E-08
     mixing beta               =       0.2000
     number of iterations used =            8  plain     mixing
     energy convergence thresh.=      1.0E-04
     force convergence thresh. =      1.0E-03
     Exchange-correlation= SLA  PW   PBX  PBC
                           (   1   4   3   4   0   0   0)
     nstep                     =          200


     celldm(1)=  17.957575  celldm(2)=   0.000000  celldm(3)=   0.000000
     celldm(4)=   0.000000  celldm(5)=   0.000000  celldm(6)=   0.000000

     crystal axes: (cart. coord. in units of alat)
               a(1) = (   1.000000   0.000000   0.000000 )  
               a(2) = (  -0.500000   0.866025   0.000000 )  
               a(3) = (   0.000000   0.000000   2.183951 )  

     reciprocal axes: (cart. coord. in units 2 pi/alat)
               b(1) = (  1.000000  0.577351  0.000000 )  
               b(2) = (  0.000000  1.154701  0.000000 )  
               b(3) = (  0.000000  0.000000  0.457886 )  


     PseudoPot. # 1 for Cr read from file:
     pseudo/Cr.pbe-spn-kjpaw_psl.1.0.0.UPF
     MD5 check sum: 198f1a2427a48552563eee314eba32ba
     Pseudo is Projector augmented-wave + core cor, Zval = 14.0
     Generated using &quot;atomic&quot; code by A. Dal Corso  v.6.3
     Shape of augmentation charge: PSQ
     Using radial grid of 1183 points,  6 beta functions with: 
                l(1) =   0
                l(2) =   0
                l(3) =   1
                l(4) =   1
                l(5) =   2
                l(6) =   2
     Q(r) pseudized with 0 coefficients 


     PseudoPot. # 2 for N  read from file:
     pseudo/N.pbe-n-kjpaw_psl.1.0.0.UPF
     MD5 check sum: 14c48229446f9f2d411169a3abcbc3fa
     Pseudo is Projector augmented-wave + core cor, Zval =  5.0
     Generated using &quot;atomic&quot; code by A. Dal Corso  v.6.3
     Shape of augmentation charge: PSQ
     Using radial grid of 1085 points,  4 beta functions with: 
                l(1) =   0
                l(2) =   0
                l(3) =   1
                l(4) =   1
     Q(r) pseudized with 0 coefficients 


     PseudoPot. # 3 for C  read from file:
     pseudo/C.pbe-n-kjpaw_psl.1.0.0.UPF
     MD5 check sum: 5f16ad9a65e90284d1d834d4ab3b0f7d
     Pseudo is Projector augmented-wave + core cor, Zval =  4.0
     Generated using &quot;atomic&quot; code by A. Dal Corso  v.6.3
     Shape of augmentation charge: PSQ
     Using radial grid of 1073 points,  4 beta functions with: 
                l(1) =   0
                l(2) =   0
                l(3) =   1
                l(4) =   1
     Q(r) pseudized with 0 coefficients 


     PseudoPot. # 4 for H  read from file:
     pseudo/H.pbe-kjpaw_psl.1.0.0.UPF
     MD5 check sum: d81a744832360e4a8af0b0b5b123bc2a
     Pseudo is Projector augmented-wave, Zval =  1.0
     Generated using &quot;atomic&quot; code by A. Dal Corso  v.6.3MaX
     Shape of augmentation charge: PSQ
     Using radial grid of  929 points,  2 beta functions with: 
                l(1) =   0
                l(2) =   0
     Q(r) pseudized with 0 coefficients 


     atomic species   valence    mass     pseudopotential
     Cr               14.00    51.99610     Cr( 1.00)
     N                 5.00    14.00670     N ( 1.00)
     C                 4.00    12.01100     C ( 1.00)
     H                 1.00     1.00800     H ( 1.00)

     No symmetry found



   Cartesian axes

     site n.     atom                  positions (alat units)
         1        Cr     tau(   1) = (  -0.1681591   0.2912601   0.8673998  )
         2        Cr     tau(   2) = (   0.3363182   0.0000000   0.8673998  )
         3        Cr     tau(   3) = (   0.0818405   0.1417518   0.8673993  )
         4        Cr     tau(   4) = (   0.1684970   0.2918454   0.6425759  )
         5        Cr     tau(   5) = (  -0.0815030   0.1411673   0.6425759  )
         6        Cr     tau(   6) = (   0.1630059   0.0000000   0.6425759  )
         7        N      tau(   7) = (   0.0000000   0.0000000   0.5261641  )
         8        N      tau(   8) = (   0.2500000   0.1443376   0.7485579  )
         9        N      tau(   9) = (   0.0000000   0.2886752   0.7485579  )
        10        Cr     tau(  10) = (  -0.1730001   0.2996450   1.3148727  )
        11        Cr     tau(  11) = (   0.3460003   0.0000000   1.3148727  )
        12        Cr     tau(  12) = (   0.0770029   0.1333729   1.3148745  )
        13        Cr     tau(  13) = (   0.1677092   0.2904808   1.0968932  )
        14        Cr     tau(  14) = (  -0.0822901   0.1425306   1.0968938  )
        15        Cr     tau(  15) = (   0.1645802   0.0000000   1.0968938  )
        16        N      tau(  16) = (   0.0000000   0.0000000   0.9808490  )
        17        N      tau(  17) = (   0.2500004   0.1443372   1.2145625  )
        18        N      tau(  18) = (  -0.0000005   0.2886753   1.2145625  )
        19        Cr     tau(  19) = (  -0.4181595   0.7242736   0.8673993  )
        20        Cr     tau(  20) = (   0.0863184   0.4330126   0.8674001  )
        21        Cr     tau(  21) = (  -0.1681593   0.5747652   0.8674001  )
        22        Cr     tau(  22) = (  -0.0815030   0.7248581   0.6425759  )
        23        Cr     tau(  23) = (  -0.3315030   0.5741800   0.6425759  )
        24        Cr     tau(  24) = (  -0.0869941   0.4330127   0.6425759  )
        25        N      tau(  25) = (  -0.2500000   0.4330127   0.5261641  )
        26        N      tau(  26) = (   0.0000000   0.5773503   0.7485581  )
        27        N      tau(  27) = (  -0.2500000   0.7216878   0.7485579  )
        28        Cr     tau(  28) = (  -0.4229971   0.7326525   1.3148745  )
        29        Cr     tau(  29) = (   0.0959968   0.4330121   1.3148749  )
        30        Cr     tau(  30) = (  -0.1729989   0.5663837   1.3148749  )
        31        Cr     tau(  31) = (  -0.0822898   0.7234940   1.0968932  )
        32        Cr     tau(  32) = (  -0.3322908   0.5755446   1.0968932  )
        33        Cr     tau(  33) = (  -0.0854193   0.4330133   1.0968932  )
        34        N      tau(  34) = (  -0.2500001   0.4330128   0.9808490  )
        35        N      tau(  35) = (   0.0000000   0.5773503   1.2145635  )
        36        N      tau(  36) = (  -0.2499996   0.7216882   1.2145625  )
        37        Cr     tau(  37) = (   0.3318407   0.2912602   0.8674001  )
        38        Cr     tau(  38) = (   0.8363191   0.0000000   0.8673993  )
        39        Cr     tau(  39) = (   0.5818409   0.1417524   0.8674001  )
        40        Cr     tau(  40) = (   0.6684970   0.2918454   0.6425759  )
        41        Cr     tau(  41) = (   0.4184970   0.1411673   0.6425759  )
        42        Cr     tau(  42) = (   0.6630059   0.0000000   0.6425759  )
        43        N      tau(  43) = (   0.5000000   0.0000000   0.5261641  )
        44        N      tau(  44) = (   0.7500000   0.1443376   0.7485579  )
        45        N      tau(  45) = (   0.5000000   0.2886751   0.7485581  )
        46        Cr     tau(  46) = (   0.3270011   0.2996417   1.3148749  )
        47        Cr     tau(  47) = (   0.8459942   0.0000000   1.3148745  )
        48        Cr     tau(  48) = (   0.5770021   0.1333704   1.3148749  )
        49        Cr     tau(  49) = (   0.6677091   0.2904819   1.0968932  )
        50        Cr     tau(  50) = (   0.4177102   0.1425314   1.0968932  )
        51        Cr     tau(  51) = (   0.6645817   0.0000000   1.0968932  )
        52        N      tau(  52) = (   0.5000001   0.0000000   0.9808490  )
        53        N      tau(  53) = (   0.7500001   0.1443381   1.2145625  )
        54        N      tau(  54) = (   0.5000000   0.2886751   1.2145635  )
        55        Cr     tau(  55) = (   0.0818409   0.7242730   0.8674001  )
        56        Cr     tau(  56) = (   0.5863184   0.4330128   0.8674001  )
        57        Cr     tau(  57) = (   0.3318409   0.5747653   0.8673998  )
        58        Cr     tau(  58) = (   0.4184970   0.7248581   0.6425759  )
        59        Cr     tau(  59) = (   0.1684970   0.5741800   0.6425759  )
        60        Cr     tau(  60) = (   0.4130059   0.4330127   0.6425759  )
        61        N      tau(  61) = (   0.2500000   0.4330127   0.5261641  )
        62        N      tau(  62) = (   0.5000000   0.5773502   0.7485579  )
        63        N      tau(  63) = (   0.2500000   0.7216878   0.7485579  )
        64        Cr     tau(  64) = (   0.0770021   0.7326550   1.3148749  )
        65        Cr     tau(  65) = (   0.5959968   0.4330133   1.3148749  )
        66        Cr     tau(  66) = (   0.3269999   0.5663804   1.3148727  )
        67        Cr     tau(  67) = (   0.4177099   0.7234948   1.0968938  )
        68        Cr     tau(  68) = (   0.1677091   0.5755435   1.0968932  )
        69        Cr     tau(  69) = (   0.4145807   0.4330121   1.0968932  )
        70        N      tau(  70) = (   0.2499999   0.4330126   0.9808490  )
        71        N      tau(  71) = (   0.4999995   0.5773501   1.2145625  )
        72        N      tau(  72) = (   0.2500001   0.7216873   1.2145625  )
        73        C      tau(  73) = (   0.2499993   0.4330114   1.6400436  )
        74        H      tau(  74) = (   0.2500086   0.4329951   1.5253419  )
        75        H      tau(  75) = (   0.3040670   0.3393634   1.6782951  )
        76        H      tau(  76) = (   0.3040670   0.5266703   1.6782686  )
        77        H      tau(  77) = (   0.1418544   0.4330168   1.6782686  )

     --------------------------------------------
     DFT-D3 Dispersion Correction (3-body terms):
     --------------------------------------------
       Reference C6 values for interpolation: 

         atom   Coordination number   C6
         H          0.912             6.05
         H          0.000            15.18
         C          0.000            98.23
         C          0.987            86.49
         C          1.998            58.72
         C          2.999            51.56
         C          3.984            36.41
         N          0.000            50.54
         N          0.994            44.25
         N          2.014            39.35
         N          2.990            31.16
         Cr         0.000          1381.48
         Cr         1.827           571.38
         Cr        10.619           306.69

       Values used:

         atom   Coordination number  R0_AB[au]  C6      C8
         Cr        12.627            3.252    306.69  28303.74
         Cr        12.627            3.252    306.69  28303.74
         Cr        12.627            3.252    306.69  28303.74
         Cr        10.143            3.252    306.69  28303.74
         Cr        10.143            3.252    306.69  28303.74
         Cr        10.143            3.252    306.69  28303.74
         N          3.022            2.478     31.29    690.36
         N          6.023            2.478     31.16    687.49
         N          6.023            2.478     31.16    687.49
         Cr         9.071            3.252    306.69  28303.74
         Cr         9.071            3.252    306.69  28303.74
         Cr         9.072            3.252    306.69  28303.74
         Cr        12.748            3.252    306.69  28303.74
         Cr        12.747            3.252    306.69  28303.74
         Cr        12.748            3.252    306.69  28303.74
         N          6.047            2.478     31.16    687.49
         N          6.032            2.478     31.16    687.49
         N          6.032            2.478     31.16    687.49
         Cr        12.627            3.252    306.69  28303.74
         Cr        12.627            3.252    306.69  28303.74
         Cr        12.627            3.252    306.69  28303.74
         Cr        10.143            3.252    306.69  28303.74
         Cr        10.143            3.252    306.69  28303.74
         Cr        10.143            3.252    306.69  28303.74
         N          3.022            2.478     31.29    690.36
         N          6.023            2.478     31.16    687.49
         N          6.023            2.478     31.16    687.49
         Cr         9.071            3.252    306.69  28303.74
         Cr         9.105            3.252    306.69  28303.74
         Cr         9.071            3.252    306.69  28303.74
         Cr        12.748            3.252    306.69  28303.74
         Cr        12.748            3.252    306.69  28303.74
         Cr        12.748            3.252    306.69  28303.74
         N          6.047            2.478     31.16    687.49
         N          6.032            2.478     31.16    687.49
         N          6.032            2.478     31.16    687.49
         Cr        12.627            3.252    306.69  28303.74
         Cr        12.627            3.252    306.69  28303.74
         Cr        12.627            3.252    306.69  28303.74
         Cr        10.143            3.252    306.69  28303.74
         Cr        10.143            3.252    306.69  28303.74
         Cr        10.143            3.252    306.69  28303.74
         N          3.022            2.478     31.29    690.36
         N          6.023            2.478     31.16    687.49
         N          6.023            2.478     31.16    687.49
         Cr         9.105            3.252    306.69  28303.74
         Cr         9.071            3.252    306.69  28303.74
         Cr         9.071            3.252    306.69  28303.74
         Cr        12.748            3.252    306.69  28303.74
         Cr        12.748            3.252    306.69  28303.74
         Cr        12.748            3.252    306.69  28303.74
         N          6.047            2.478     31.16    687.49
         N          6.032            2.478     31.16    687.49
         N          6.032            2.478     31.16    687.49
         Cr        12.627            3.252    306.69  28303.74
         Cr        12.627            3.252    306.69  28303.74
         Cr        12.627            3.252    306.69  28303.74
         Cr        10.143            3.252    306.69  28303.74
         Cr        10.143            3.252    306.69  28303.74
         Cr        10.143            3.252    306.69  28303.74
         N          3.022            2.478     31.29    690.36
         N          6.023            2.478     31.16    687.49
         N          6.023            2.478     31.16    687.49
         Cr         9.072            3.252    306.69  28303.74
         Cr         9.072            3.252    306.69  28303.74
         Cr         9.105            3.252    306.69  28303.74
         Cr        12.748            3.252    306.69  28303.74
         Cr        12.748            3.252    306.69  28303.74
         Cr        12.748            3.252    306.69  28303.74
         N          6.047            2.478     31.16    687.49
         N          6.032            2.478     31.16    687.49
         N          6.032            2.478     31.16    687.49
         C          4.015            2.750     36.63   1059.29
         H          1.065            2.062      6.13     74.14
         H          0.997            2.062      6.18     74.75
         H          0.997            2.062      6.18     74.75
         H          0.997            2.062      6.18     74.75

         Molecular C6 ( Ry / a.u.^6 ) =    974496.04


     number of k points=    10  Methfessel-Paxton smearing, width (Ry)=  0.0200
                       cart. coord. in units 2pi/alat
        k(    1) = (   0.0000000   0.0000000   0.0000000), wk =   0.1250000
        k(    2) = (   0.0000000   0.2886753   0.0000000), wk =   0.2500000
        k(    3) = (   0.0000000  -0.5773505   0.0000000), wk =   0.1250000
        k(    4) = (   0.2500000   0.1443376   0.0000000), wk =   0.2500000
        k(    5) = (   0.2500000   0.4330129   0.0000000), wk =   0.2500000
        k(    6) = (   0.2500000  -0.4330129   0.0000000), wk =   0.2500000
        k(    7) = (   0.2500000  -0.1443376   0.0000000), wk =   0.2500000
        k(    8) = (  -0.5000000  -0.2886753   0.0000000), wk =   0.1250000
        k(    9) = (  -0.5000000   0.0000000   0.0000000), wk =   0.2500000
        k(   10) = (  -0.5000000  -0.8660258   0.0000000), wk =   0.1250000

     Dense  grid:  4502593 G-vectors     FFT dimensions: ( 180, 180, 375)

     Smooth grid:   866593 G-vectors     FFT dimensions: (  96,  96, 216)

     Estimated max dynamical RAM per process >     867.27 MB

     Estimated total dynamical RAM >      50.98 GB

     Initial potential from superposition of free atoms

     starting charge     799.9627, renormalised to     800.0000

     negative rho (up, down):  3.318E-04 0.000E+00
     Starting wfcs are  584 randomized atomic wfcs
     Checking if some PAW data can be deallocated... 

     total cpu time spent up to now is       19.7 secs

     Self-consistent Calculation

     iteration #  1     ecut=    70.00 Ry     beta= 0.20
     Davidson diagonalization with overlap
     ethr =  1.00E-02,  avg # of iterations =  2.7

     negative rho (up, down):  1.299E-04 0.000E+00

     total cpu time spent up to now is       65.8 secs

     total energy              =  -12610.57577837 Ry
     estimated scf accuracy    <      29.47312542 Ry

     iteration #  2     ecut=    70.00 Ry     beta= 0.20
     Davidson diagonalization with overlap
     ethr =  3.68E-03,  avg # of iterations =  6.5

     negative rho (up, down):  4.038E-04 0.000E+00

     total cpu time spent up to now is      122.2 secs

     total energy              =  -12599.99850318 Ry
     estimated scf accuracy    <     688.94196794 Ry

     iteration #  3     ecut=    70.00 Ry     beta= 0.20
     Davidson diagonalization with overlap
     ethr =  3.68E-03,  avg # of iterations =  3.5

     negative rho (up, down):  5.910E-04 0.000E+00

     total cpu time spent up to now is      164.7 secs

     total energy              =  -12608.72036572 Ry
     estimated scf accuracy    <     501.10080535 Ry

     iteration #  4     ecut=    70.00 Ry     beta= 0.20
     Davidson diagonalization with overlap
     ethr =  3.68E-03,  avg # of iterations =  2.0

     negative rho (up, down):  2.649E-04 0.000E+00

     total cpu time spent up to now is      205.1 secs

     total energy              =  -12615.01106134 Ry
     estimated scf accuracy    <      81.62089621 Ry

     iteration #  5     ecut=    70.00 Ry     beta= 0.20
     Davidson diagonalization with overlap
     ethr =  3.68E-03,  avg # of iterations =  1.6

     negative rho (up, down):  3.331E-04 0.000E+00

     total cpu time spent up to now is      243.4 secs

     total energy              =  -12615.85566471 Ry
     estimated scf accuracy    <       6.70491518 Ry

     iteration #  6     ecut=    70.00 Ry     beta= 0.20
     Davidson diagonalization with overlap
     ethr =  8.38E-04,  avg # of iterations =  8.2

     negative rho (up, down):  3.952E-04 0.000E+00

     total cpu time spent up to now is      289.0 secs

     total energy              =  -12616.22461201 Ry
     estimated scf accuracy    <       3.73910153 Ry

     iteration #  7     ecut=    70.00 Ry     beta= 0.20
     Davidson diagonalization with overlap
     ethr =  4.67E-04,  avg # of iterations =  7.9

     negative rho (up, down):  4.019E-04 0.000E+00

     total cpu time spent up to now is      334.9 secs

     total energy              =  -12616.33147549 Ry
     estimated scf accuracy    <       1.66599347 Ry

     iteration #  8     ecut=    70.00 Ry     beta= 0.20
     Davidson diagonalization with overlap
     c_bands:  1 eigenvalues not converged
     ethr =  2.08E-04,  avg # of iterations =  9.1

     negative rho (up, down):  4.199E-04 0.000E+00

     total cpu time spent up to now is      385.5 secs

     total energy              =  -12616.36760053 Ry
     estimated scf accuracy    <       0.86616462 Ry

     iteration #  9     ecut=    70.00 Ry     beta= 0.20
     Davidson diagonalization with overlap
     ethr =  1.08E-04,  avg # of iterations =  9.3

     negative rho (up, down):  3.373E-04 0.000E+00

     total cpu time spent up to now is      432.3 secs

     total energy              =  -12616.36926668 Ry
     estimated scf accuracy    <       0.67659360 Ry

     iteration # 10     ecut=    70.00 Ry     beta= 0.20
     Davidson diagonalization with overlap
     ethr =  8.46E-05,  avg # of iterations =  2.2

     negative rho (up, down):  3.212E-04 0.000E+00

     total cpu time spent up to now is      472.6 secs

     total energy              =  -12616.36892756 Ry
     estimated scf accuracy    <       0.44869563 Ry

     iteration # 11     ecut=    70.00 Ry     beta= 0.20
     Davidson diagonalization with overlap
     ethr =  5.61E-05,  avg # of iterations =  4.7

     negative rho (up, down):  3.331E-04 0.000E+00

     total cpu time spent up to now is      524.3 secs

     total energy              =  -12616.37966926 Ry
     estimated scf accuracy    <       0.25735825 Ry

     iteration # 12     ecut=    70.00 Ry     beta= 0.20
     Davidson diagonalization with overlap
     ethr =  3.22E-05,  avg # of iterations = 12.5

     negative rho (up, down):  2.363E-04 0.000E+00

     total cpu time spent up to now is      578.9 secs

     total energy              =  -12616.37434298 Ry
     estimated scf accuracy    <       0.54170866 Ry

     iteration # 13     ecut=    70.00 Ry     beta= 0.20
     Davidson diagonalization with overlap
     ethr =  3.22E-05,  avg # of iterations =  1.0

     negative rho (up, down):  2.111E-04 0.000E+00

     total cpu time spent up to now is      614.3 secs

     total energy              =  -12616.38293651 Ry
     estimated scf accuracy    <       0.11037407 Ry

     iteration # 14     ecut=    70.00 Ry     beta= 0.20
     Davidson diagonalization with overlap
     ethr =  1.38E-05,  avg # of iterations =  2.8

     negative rho (up, down):  1.917E-04 0.000E+00

     total cpu time spent up to now is      655.4 secs

     total energy              =  -12616.38427399 Ry
     estimated scf accuracy    <       0.09087276 Ry

     iteration # 15     ecut=    70.00 Ry     beta= 0.20
     Davidson diagonalization with overlap
     ethr =  1.14E-05,  avg # of iterations =  1.1

     negative rho (up, down):  1.783E-04 0.000E+00

     total cpu time spent up to now is      692.2 secs

     total energy              =  -12616.38412271 Ry
     estimated scf accuracy    <       0.12365491 Ry

     iteration # 16     ecut=    70.00 Ry     beta= 0.20
     Davidson diagonalization with overlap
     ethr =  1.14E-05,  avg # of iterations =  1.1

     negative rho (up, down):  1.803E-04 0.000E+00

     total cpu time spent up to now is      728.7 secs

     total energy              =  -12616.38523594 Ry
     estimated scf accuracy    <       0.03455267 Ry

     iteration # 17     ecut=    70.00 Ry     beta= 0.20
     Davidson diagonalization with overlap
     ethr =  4.32E-06,  avg # of iterations =  5.4

     negative rho (up, down):  1.808E-04 0.000E+00

     total cpu time spent up to now is      775.1 secs

     total energy              =  -12616.38472937 Ry
     estimated scf accuracy    <       0.07011826 Ry

     iteration # 18     ecut=    70.00 Ry     beta= 0.20
     Davidson diagonalization with overlap
     ethr =  4.32E-06,  avg # of iterations =  1.3

     negative rho (up, down):  1.852E-04 0.000E+00

     total cpu time spent up to now is      814.1 secs

     total energy              =  -12616.38608188 Ry
     estimated scf accuracy    <       0.03970022 Ry

     iteration # 19     ecut=    70.00 Ry     beta= 0.20
     Davidson diagonalization with overlap
     ethr =  4.32E-06,  avg # of iterations =  1.2

     negative rho (up, down):  1.866E-04 0.000E+00

     total cpu time spent up to now is      852.0 secs

     total energy              =  -12616.38701509 Ry
     estimated scf accuracy    <       0.00626796 Ry

     iteration # 20     ecut=    70.00 Ry     beta= 0.20
     Davidson diagonalization with overlap
     ethr =  7.83E-07,  avg # of iterations =  4.9

     negative rho (up, down):  1.889E-04 0.000E+00

     total cpu time spent up to now is      897.3 secs

     total energy              =  -12616.38718010 Ry
     estimated scf accuracy    <       0.00299428 Ry

     iteration # 21     ecut=    70.00 Ry     beta= 0.20
     Davidson diagonalization with overlap
     ethr =  3.74E-07,  avg # of iterations =  2.9

     negative rho (up, down):  1.936E-04 0.000E+00

     total cpu time spent up to now is      938.8 secs

     total energy              =  -12616.38724460 Ry
     estimated scf accuracy    <       0.00563174 Ry

     iteration # 22     ecut=    70.00 Ry     beta= 0.20
     Davidson diagonalization with overlap
     ethr =  3.74E-07,  avg # of iterations =  1.4

     negative rho (up, down):  1.968E-04 0.000E+00

     total cpu time spent up to now is      978.3 secs

     total energy              =  -12616.38738114 Ry
     estimated scf accuracy    <       0.00310229 Ry

     iteration # 23     ecut=    70.00 Ry     beta= 0.20
     Davidson diagonalization with overlap
     ethr =  3.74E-07,  avg # of iterations =  1.0

     negative rho (up, down):  1.995E-04 0.000E+00

     total cpu time spent up to now is     1013.8 secs

     total energy              =  -12616.38748046 Ry
     estimated scf accuracy    <       0.00086297 Ry

     iteration # 24     ecut=    70.00 Ry     beta= 0.20
     Davidson diagonalization with overlap
     ethr =  1.08E-07,  avg # of iterations =  2.3

     negative rho (up, down):  1.998E-04 0.000E+00

     total cpu time spent up to now is     1054.7 secs

     total energy              =  -12616.38750915 Ry
     estimated scf accuracy    <       0.00115998 Ry

     iteration # 25     ecut=    70.00 Ry     beta= 0.20
     Davidson diagonalization with overlap
     ethr =  1.08E-07,  avg # of iterations =  1.1

     negative rho (up, down):  2.004E-04 0.000E+00

     total cpu time spent up to now is     1091.5 secs

     total energy              =  -12616.38753380 Ry
     estimated scf accuracy    <       0.00069299 Ry

     iteration # 26     ecut=    70.00 Ry     beta= 0.20
     Davidson diagonalization with overlap
     ethr =  8.66E-08,  avg # of iterations =  1.8

     negative rho (up, down):  2.008E-04 0.000E+00

     total cpu time spent up to now is     1131.6 secs

     total energy              =  -12616.38754877 Ry
     estimated scf accuracy    <       0.00010615 Ry

     iteration # 27     ecut=    70.00 Ry     beta= 0.20
     Davidson diagonalization with overlap
     ethr =  1.33E-08,  avg # of iterations =  7.3

     negative rho (up, down):  1.997E-04 0.000E+00

     total cpu time spent up to now is     1177.7 secs

     total energy              =  -12616.38754507 Ry
     estimated scf accuracy    <       0.00072375 Ry

     iteration # 28     ecut=    70.00 Ry     beta= 0.20
     Davidson diagonalization with overlap
     ethr =  1.33E-08,  avg # of iterations =  2.0

     negative rho (up, down):  2.005E-04 0.000E+00

     total cpu time spent up to now is     1218.0 secs

     total energy              =  -12616.38755175 Ry
     estimated scf accuracy    <       0.00031455 Ry

     iteration # 29     ecut=    70.00 Ry     beta= 0.20
     Davidson diagonalization with overlap
     ethr =  1.33E-08,  avg # of iterations =  1.0

     negative rho (up, down):  2.008E-04 0.000E+00

     total cpu time spent up to now is     1253.4 secs

     total energy              =  -12616.38755929 Ry
     estimated scf accuracy    <       0.00008436 Ry

     iteration # 30     ecut=    70.00 Ry     beta= 0.20
     Davidson diagonalization with overlap
     ethr =  1.05E-08,  avg # of iterations =  1.1

     negative rho (up, down):  2.004E-04 0.000E+00

     total cpu time spent up to now is     1290.0 secs

     total energy              =  -12616.38755937 Ry
     estimated scf accuracy    <       0.00008665 Ry

     iteration # 31     ecut=    70.00 Ry     beta= 0.20
     Davidson diagonalization with overlap
     ethr =  1.05E-08,  avg # of iterations =  1.0

     negative rho (up, down):  2.002E-04 0.000E+00

     total cpu time spent up to now is     1325.3 secs

     total energy              =  -12616.38755924 Ry
     estimated scf accuracy    <       0.00009554 Ry

     iteration # 32     ecut=    70.00 Ry     beta= 0.20
     Davidson diagonalization with overlap
     ethr =  1.05E-08,  avg # of iterations =  1.0

     negative rho (up, down):  2.000E-04 0.000E+00

     total cpu time spent up to now is     1360.8 secs

     total energy              =  -12616.38756122 Ry
     estimated scf accuracy    <       0.00001011 Ry

     iteration # 33     ecut=    70.00 Ry     beta= 0.20
     Davidson diagonalization with overlap
     ethr =  1.26E-09,  avg # of iterations =  2.3

     negative rho (up, down):  1.994E-04 0.000E+00

     total cpu time spent up to now is     1401.7 secs

     total energy              =  -12616.38756006 Ry
     estimated scf accuracy    <       0.00001574 Ry

     iteration # 34     ecut=    70.00 Ry     beta= 0.20
     Davidson diagonalization with overlap
     ethr =  1.26E-09,  avg # of iterations =  2.0

     negative rho (up, down):  1.994E-04 0.000E+00

     total cpu time spent up to now is     1442.2 secs

     total energy              =  -12616.38755987 Ry
     estimated scf accuracy    <       0.00002060 Ry

     iteration # 35     ecut=    70.00 Ry     beta= 0.20
     Davidson diagonalization with overlap
     ethr =  1.26E-09,  avg # of iterations =  1.7

     negative rho (up, down):  1.994E-04 0.000E+00

     total cpu time spent up to now is     1482.0 secs

     total energy              =  -12616.38756019 Ry
     estimated scf accuracy    <       0.00001149 Ry

     iteration # 36     ecut=    70.00 Ry     beta= 0.20
     Davidson diagonalization with overlap
     ethr =  1.26E-09,  avg # of iterations =  1.0

     negative rho (up, down):  1.993E-04 0.000E+00

     total cpu time spent up to now is     1517.3 secs

     total energy              =  -12616.38756034 Ry
     estimated scf accuracy    <       0.00000466 Ry

     iteration # 37     ecut=    70.00 Ry     beta= 0.20
     Davidson diagonalization with overlap
     ethr =  5.83E-10,  avg # of iterations =  1.2

     negative rho (up, down):  1.991E-04 0.000E+00

     total cpu time spent up to now is     1554.9 secs

     total energy              =  -12616.38756020 Ry
     estimated scf accuracy    <       0.00000436 Ry

     iteration # 38     ecut=    70.00 Ry     beta= 0.20
     Davidson diagonalization with overlap
     ethr =  5.45E-10,  avg # of iterations =  1.0

     negative rho (up, down):  1.991E-04 0.000E+00

     total cpu time spent up to now is     1590.4 secs

     total energy              =  -12616.38756027 Ry
     estimated scf accuracy    <       0.00000197 Ry

     iteration # 39     ecut=    70.00 Ry     beta= 0.20
     Davidson diagonalization with overlap
     ethr =  2.46E-10,  avg # of iterations =  1.3

     negative rho (up, down):  1.990E-04 0.000E+00

     total cpu time spent up to now is     1628.2 secs

     total energy              =  -12616.38756021 Ry
     estimated scf accuracy    <       0.00000501 Ry

     iteration # 40     ecut=    70.00 Ry     beta= 0.20
     Davidson diagonalization with overlap
     ethr =  2.46E-10,  avg # of iterations =  1.1

     negative rho (up, down):  1.989E-04 0.000E+00

     total cpu time spent up to now is     1664.8 secs

     total energy              =  -12616.38756014 Ry
     estimated scf accuracy    <       0.00000449 Ry

     iteration # 41     ecut=    70.00 Ry     beta= 0.20
     Davidson diagonalization with overlap
     ethr =  2.46E-10,  avg # of iterations =  1.0

     negative rho (up, down):  1.988E-04 0.000E+00

     total cpu time spent up to now is     1700.3 secs

     total energy              =  -12616.38756016 Ry
     estimated scf accuracy    <       0.00000188 Ry

     iteration # 42     ecut=    70.00 Ry     beta= 0.20
     Davidson diagonalization with overlap
     ethr =  2.35E-10,  avg # of iterations =  1.0

     negative rho (up, down):  1.987E-04 0.000E+00

     total cpu time spent up to now is     1735.7 secs

     total energy              =  -12616.38756020 Ry
     estimated scf accuracy    <       0.00000037 Ry

     iteration # 43     ecut=    70.00 Ry     beta= 0.20
     Davidson diagonalization with overlap
     ethr =  4.58E-11,  avg # of iterations =  2.0

     negative rho (up, down):  1.987E-04 0.000E+00

     total cpu time spent up to now is     1776.0 secs

     total energy              =  -12616.38756021 Ry
     estimated scf accuracy    <       0.00000035 Ry

     iteration # 44     ecut=    70.00 Ry     beta= 0.20
     Davidson diagonalization with overlap
     ethr =  4.32E-11,  avg # of iterations =  1.2

     negative rho (up, down):  1.987E-04 0.000E+00

     total cpu time spent up to now is     1813.8 secs

     total energy              =  -12616.38756021 Ry
     estimated scf accuracy    <       0.00000024 Ry

     iteration # 45     ecut=    70.00 Ry     beta= 0.20
     Davidson diagonalization with overlap
     ethr =  3.01E-11,  avg # of iterations =  1.4

     negative rho (up, down):  1.987E-04 0.000E+00

     total cpu time spent up to now is     1853.4 secs

     total energy              =  -12616.38756022 Ry
     estimated scf accuracy    <       0.00000008 Ry

     iteration # 46     ecut=    70.00 Ry     beta= 0.20
     Davidson diagonalization with overlap
     ethr =  1.06E-11,  avg # of iterations =  5.1

     negative rho (up, down):  1.986E-04 0.000E+00

     total cpu time spent up to now is     1896.5 secs

     total energy              =  -12616.38756022 Ry
     estimated scf accuracy    <       0.00000021 Ry

     iteration # 47     ecut=    70.00 Ry     beta= 0.20
     Davidson diagonalization with overlap
     ethr =  1.06E-11,  avg # of iterations =  1.8

     negative rho (up, down):  1.986E-04 0.000E+00

     total cpu time spent up to now is     1936.3 secs

     total energy              =  -12616.38756021 Ry
     estimated scf accuracy    <       0.00000029 Ry

     iteration # 48     ecut=    70.00 Ry     beta= 0.20
     Davidson diagonalization with overlap
     ethr =  1.06E-11,  avg # of iterations =  1.7

     negative rho (up, down):  1.986E-04 0.000E+00

     total cpu time spent up to now is     1976.0 secs

     total energy              =  -12616.38756022 Ry
     estimated scf accuracy    <       0.00000004 Ry

     iteration # 49     ecut=    70.00 Ry     beta= 0.20
     Davidson diagonalization with overlap
     ethr =  4.99E-12,  avg # of iterations =  2.0

     negative rho (up, down):  1.986E-04 0.000E+00

     total cpu time spent up to now is     2016.4 secs

     total energy              =  -12616.38756022 Ry
     estimated scf accuracy    <       0.00000043 Ry

     iteration # 50     ecut=    70.00 Ry     beta= 0.20
     Davidson diagonalization with overlap
     ethr =  4.99E-12,  avg # of iterations =  1.5

     negative rho (up, down):  1.986E-04 0.000E+00

     total cpu time spent up to now is     2053.5 secs

     total energy              =  -12616.38756022 Ry
     estimated scf accuracy    <       0.00000008 Ry

     iteration # 51     ecut=    70.00 Ry     beta= 0.20
     Davidson diagonalization with overlap
     ethr =  4.99E-12,  avg # of iterations =  1.1

     negative rho (up, down):  1.986E-04 0.000E+00

     total cpu time spent up to now is     2090.1 secs

     total energy              =  -12616.38756022 Ry
     estimated scf accuracy    <       0.00000005 Ry

     iteration # 52     ecut=    70.00 Ry     beta= 0.20
     Davidson diagonalization with overlap
     ethr =  4.99E-12,  avg # of iterations =  1.0

     negative rho (up, down):  1.986E-04 0.000E+00

     total cpu time spent up to now is     2125.4 secs

     End of self-consistent calculation

          k = 0.0000 0.0000 0.0000 (108303 PWs)   bands (ev):

   -67.0763 -67.0357 -67.0357 -67.0356 -67.0274 -67.0274 -67.0266 -67.0251
   -67.0018 -67.0011 -67.0011 -66.9977 -66.9977 -66.9975 -66.9934 -66.9934
   -66.9921 -66.9905 -66.9905 -66.9807 -66.9791 -66.9791 -66.9757 -66.9757
   -66.8230 -66.7937 -66.7936 -66.7936 -66.7870 -66.7864 -66.7864 -66.7701
   -66.7701 -66.7694 -66.7635 -66.7634 -66.7344 -66.7100 -66.6989 -66.6989
   -66.6861 -66.6861 -66.6645 -66.6605 -66.6605 -66.6568 -66.6506 -66.6506
   -38.8803 -38.8532 -38.8532 -38.8508 -38.7509 -38.7509 -38.7504 -38.7115
   -38.7115 -38.6954 -38.6954 -38.6941 -38.6712 -38.6405 -38.6405 -38.6369
   -38.6172 -38.6172 -38.6162 -38.5911 -38.5864 -38.5864 -38.5530 -38.5530
   -38.5484 -38.5484 -38.5477 -38.5404 -38.4659 -38.4550 -38.4488 -38.4488
   -38.4472 -38.4435 -38.4435 -38.4419 -38.4399 -38.4399 -38.4033 -38.4033
   -38.4030 -38.3866 -38.3865 -38.3865 -38.3668 -38.3432 -38.3415 -38.3415
   -38.3391 -38.3385 -38.3385 -38.3377 -38.3377 -38.3266 -38.3191 -38.3191
   -38.3140 -38.3140 -38.3088 -38.3062 -38.3062 -38.3059 -38.3049 -38.3049
   -38.2935 -38.2913 -38.2913 -38.2871 -38.2781 -38.2781 -38.2766 -38.2314
   -38.2314 -38.2291 -38.2259 -38.2192 -38.2192 -38.2181 -38.2181 -38.2125
   -38.2020 -38.1929 -38.1929 -38.1892 -38.1709 -38.1709 -38.1704 -38.1608
   -38.1608 -38.1540 -38.1540 -38.1323 -38.1303 -38.1279 -38.1279 -38.1250
   -38.1167 -38.1167 -38.1088 -38.1088 -38.1067 -38.0796 -38.0789 -38.0789
   -38.0454 -38.0454 -38.0378 -38.0378 -38.0370 -38.0274 -38.0274 -38.0240
   -38.0212 -38.0212 -38.0196 -38.0030 -38.0028 -37.9970 -37.9970 -37.9873
   -37.9873 -37.9753 -37.9753 -37.9751 -37.9415 -37.9410 -37.9410 -37.9401
   -37.9401 -37.9398 -37.9113 -37.9113 -37.9075 -37.8923 -37.8844 -37.8844
   -37.7782 -37.7782 -37.7708 -37.7508 -37.7508 -37.7490 -37.7307 -37.7307
   -12.5772 -12.1072 -11.8748 -11.8748 -11.8740 -11.7269 -11.7268 -11.7231
   -11.7019 -11.7019 -11.6996 -11.4192 -11.4192 -11.4163 -11.3426 -11.3097
   -11.3097 -11.3074 -11.0787 -11.0568  -8.7847  -8.7847  -8.7846  -8.7271
    -7.8131  -3.0792  -3.0773  -3.0773  -2.8639  -2.8357  -2.8357  -2.6412
    -2.6412  -2.6412  -2.6229  -2.6133  -2.6133  -2.5449  -2.4868  -2.4805
    -2.4805  -2.3966  -2.3936  -2.3936  -2.3129  -2.3129  -1.8400  -1.8343
    -1.8343  -1.6569  -1.6569  -1.6558  -1.5687  -1.5686  -1.5622  -1.5053
    -1.5018  -1.5018  -1.4275  -1.4139  -1.4139  -1.4124  -1.3603  -1.3602
    -1.3024  -1.3011  -1.3011  -1.1639  -1.1639  -1.0599  -0.9955  -0.9955
    -0.9942  -0.9763  -0.9763  -0.9290  -0.9008  -0.9008  -0.8994  -0.7621
    -0.7621  -0.7613  -0.7137  -0.5119  -0.5100  -0.5100  -0.0737  -0.0737
     0.5814   1.1512   1.1514   1.1514   1.3940   1.3942   1.3942   1.4697
     1.4877   1.4877   1.5083   1.5091   1.5091   1.5305   1.5305   1.5306
     1.7015   1.7049   1.7049   1.9916   1.9918   1.9918   2.1171   2.1172
     2.1195   2.1492   2.2692   2.2759   2.2759   2.3632   2.3632   2.3686
     2.3779   2.3779   2.3780   2.4412   2.4421   2.4421   2.4589   2.6207
     2.6207   2.7239   2.7261   2.7261   3.0810   3.0810   3.1206   3.2119
     3.2120   3.2747   3.2747   3.2765   3.2911   3.2911   3.2946   3.4153
     3.4153   3.4228   3.4680   3.4804   3.4805   3.5720   3.5959   3.5959
     3.6069   3.6205   3.6205   3.6535   3.6535   3.6560   3.6656   3.7493
     3.7493   3.7555   3.9170   3.9170   3.9621   4.0636   4.0636   4.0711
     4.0853   4.0853   4.2224   4.2242   4.2242   4.2366   4.2919   4.2920
     4.2940   4.3460   4.3460   4.3476   4.3610   4.4246   4.4246   4.4268
     4.4766   4.4766   4.5720   4.6331   4.6331   4.6653   4.6761   4.7152
     4.7152   4.7610   4.7646   4.7646   4.8115   4.8115   4.8219   4.8845
     4.8845   4.9023   4.9450   4.9450   4.9858   5.0561   5.0561   5.0642
     5.1596   5.1596   5.2132   5.3200   5.3200   5.3213   5.4302   5.4302
     5.4738   5.4739   5.4815   5.4955   5.4955   5.4971   5.6218   5.6218
     5.6265   5.6349   5.6349   5.6387   5.6564   5.6564   5.6931   5.6931
     5.7208   5.7731   5.7878   5.7879   5.7940   5.7987   5.7987   5.8130
     5.8366   5.8366   5.9159   5.9159   5.9226   5.9393   5.9393   5.9414
     5.9414   5.9497   5.9961   5.9961   5.9971   6.0445   6.0445   6.0581
     6.1315   6.1315   6.1449   6.1450   6.1450   6.1903   6.1903   6.1980
     6.1980   6.2011   6.2468   6.2472   6.2472   6.2940   6.2940   6.3143
     6.4609   6.4996   6.4996   6.5005   6.5592   6.5593   6.5715   6.5995
     6.5995   6.6458   6.6480   6.6483   6.6563   6.6566   6.6798   6.7615

          k = 0.0000 0.2887 0.0000 (108355 PWs)   bands (ev):

   -67.0728 -67.0487 -67.0393 -67.0391 -67.0227 -67.0213 -67.0208 -67.0147
   -67.0061 -67.0042 -67.0038 -67.0003 -67.0000 -66.9995 -66.9933 -66.9924
   -66.9899 -66.9889 -66.9858 -66.9815 -66.9803 -66.9788 -66.9764 -66.9762
   -66.8204 -66.8026 -66.7961 -66.7957 -66.7829 -66.7824 -66.7784 -66.7718
   -66.7714 -66.7690 -66.7650 -66.7645 -66.7334 -66.7107 -66.7017 -66.6996
   -66.6850 -66.6842 -66.6627 -66.6603 -66.6598 -66.6573 -66.6521 -66.6511
   -38.8770 -38.8572 -38.8491 -38.8474 -38.7463 -38.7457 -38.7449 -38.7193
   -38.7101 -38.7021 -38.7018 -38.6991 -38.6728 -38.6577 -38.6437 -38.6406
   -38.6132 -38.6111 -38.6017 -38.5928 -38.5885 -38.5870 -38.5811 -38.5587
   -38.5426 -38.5419 -38.5405 -38.5190 -38.4594 -38.4584 -38.4535 -38.4487
   -38.4456 -38.4391 -38.4385 -38.4374 -38.4324 -38.4248 -38.4085 -38.4048
   -38.4038 -38.3953 -38.3897 -38.3887 -38.3658 -38.3585 -38.3476 -38.3437
   -38.3427 -38.3417 -38.3411 -38.3409 -38.3361 -38.3312 -38.3283 -38.3243
   -38.3219 -38.3209 -38.3143 -38.3093 -38.3089 -38.3031 -38.2944 -38.2915
   -38.2879 -38.2860 -38.2855 -38.2743 -38.2691 -38.2682 -38.2674 -38.2382
   -38.2364 -38.2332 -38.2305 -38.2300 -38.2241 -38.2176 -38.2172 -38.2043
   -38.2026 -38.1979 -38.1970 -38.1820 -38.1756 -38.1737 -38.1669 -38.1615
   -38.1596 -38.1570 -38.1472 -38.1362 -38.1318 -38.1281 -38.1266 -38.1187
   -38.1170 -38.1077 -38.1052 -38.1028 -38.1013 -38.0861 -38.0846 -38.0813
   -38.0501 -38.0459 -38.0435 -38.0355 -38.0353 -38.0334 -38.0235 -38.0223
   -38.0204 -38.0183 -38.0166 -38.0009 -38.0004 -37.9963 -37.9953 -37.9894
   -37.9879 -37.9778 -37.9776 -37.9737 -37.9475 -37.9436 -37.9434 -37.9349
   -37.9344 -37.9316 -37.9214 -37.9138 -37.9053 -37.8920 -37.8853 -37.8852
   -37.7764 -37.7750 -37.7683 -37.7522 -37.7495 -37.7467 -37.7388 -37.7325
   -12.5136 -12.0865 -12.0649 -11.9303 -11.9294 -11.7981 -11.7116 -11.7095
   -11.6365 -11.6351 -11.5563 -11.4106 -11.4086 -11.3616 -11.3422 -11.3409
   -11.3306 -11.2770 -11.1118 -11.0916  -8.7863  -8.7862  -8.7749  -8.7342
    -7.8131  -3.0471  -3.0451  -3.0049  -2.8928  -2.8219  -2.8098  -2.7849
    -2.7810  -2.7793  -2.6649  -2.6627  -2.5138  -2.4739  -2.4278  -2.4230
    -2.4227  -2.3641  -2.3118  -2.2822  -2.2791  -2.2340  -2.0337  -1.8448
    -1.8426  -1.8000  -1.7084  -1.7065  -1.6519  -1.5577  -1.5576  -1.5149
    -1.4980  -1.4682  -1.4671  -1.4435  -1.3982  -1.3974  -1.3861  -1.3299
    -1.3288  -1.3127  -1.1990  -1.1576  -1.1393  -1.0911  -1.0371  -0.9828
    -0.9710  -0.9700  -0.9173  -0.9111  -0.9088  -0.8805  -0.8527  -0.8022
    -0.7305  -0.7298  -0.7087  -0.5805  -0.5370  -0.5364  -0.0742  -0.0740
     0.7026   1.1126   1.1444   1.1445   1.3836   1.3837   1.3933   1.3959
     1.4601   1.4788   1.4794   1.4985   1.5600   1.5986   1.6003   1.6129
     1.7149   1.7164   1.7599   1.9996   1.9999   2.0434   2.0939   2.0956
     2.1486   2.2007   2.2346   2.2369   2.2608   2.3586   2.3608   2.3770
     2.3879   2.3894   2.4521   2.4825   2.4835   2.5026   2.5236   2.5527
     2.6556   2.7359   2.7363   2.7988   2.9532   3.0024   3.0658   3.1357
     3.1365   3.1672   3.1730   3.2005   3.2977   3.3005   3.3257   3.3330
     3.3336   3.3752   3.4524   3.5268   3.5346   3.5451   3.5760   3.6215
     3.6367   3.6484   3.6570   3.6660   3.7129   3.7162   3.7193   3.8008
     3.9259   3.9407   3.9531   3.9606   3.9726   3.9791   3.9925   4.0830
     4.1081   4.1183   4.1790   4.1852   4.2113   4.2347   4.2376   4.2433
     4.2701   4.2963   4.3153   4.3158   4.3385   4.4160   4.4243   4.4295
     4.4341   4.5012   4.5095   4.6031   4.6279   4.6642   4.6752   4.7022
     4.7179   4.7220   4.7728   4.7836   4.8203   4.8630   4.8755   4.8782
     4.9109   4.9148   4.9391   5.0002   5.0213   5.0716   5.0782   5.1213
     5.1311   5.1688   5.2115   5.2360   5.2627   5.2925   5.3050   5.3837
     5.4020   5.4055   5.4062   5.4580   5.4843   5.4863   5.4955   5.5109
     5.5115   5.6124   5.6385   5.6504   5.6750   5.6868   5.6932   5.6976
     5.7066   5.7443   5.7477   5.7662   5.7722   5.8173   5.8249   5.8273
     5.8289   5.8719   5.8813   5.9021   5.9075   5.9138   5.9501   5.9554
     5.9593   5.9713   5.9789   5.9831   5.9967   5.9984   6.0280   6.1134
     6.1398   6.1426   6.1621   6.1849   6.1873   6.1910   6.1929   6.2444
     6.2497   6.2514   6.2526   6.3032   6.3344   6.3405   6.3429   6.3897
     6.4021   6.4064   6.4720   6.4746   6.4885   6.4948   6.5858   6.5908
     6.6090   6.6265   6.6350   6.6552   6.6768   6.6854   6.7350   6.7375

          k = 0.0000-0.5774 0.0000 (108310 PWs)   bands (ev):

   -67.0631 -67.0628 -67.0415 -67.0412 -67.0161 -67.0156 -67.0136 -67.0130
   -67.0098 -67.0096 -67.0024 -67.0015 -67.0013 -67.0009 -66.9966 -66.9963
   -66.9858 -66.9844 -66.9840 -66.9832 -66.9801 -66.9790 -66.9779 -66.9772
   -66.8131 -66.8130 -66.7976 -66.7972 -66.7780 -66.7774 -66.7752 -66.7749
   -66.7703 -66.7699 -66.7670 -66.7667 -66.7322 -66.7116 -66.7039 -66.7003
   -66.6840 -66.6828 -66.6621 -66.6590 -66.6582 -66.6567 -66.6555 -66.6516
   -38.8682 -38.8674 -38.8448 -38.8432 -38.7402 -38.7379 -38.7350 -38.7336
   -38.7109 -38.7086 -38.7059 -38.7047 -38.6719 -38.6709 -38.6459 -38.6426
   -38.6099 -38.6067 -38.5993 -38.5986 -38.5947 -38.5916 -38.5738 -38.5716
   -38.5355 -38.5345 -38.5231 -38.5224 -38.4689 -38.4676 -38.4450 -38.4441
   -38.4383 -38.4379 -38.4293 -38.4291 -38.4176 -38.4172 -38.4068 -38.4059
   -38.4012 -38.4006 -38.3934 -38.3912 -38.3796 -38.3787 -38.3502 -38.3456
   -38.3452 -38.3449 -38.3410 -38.3405 -38.3399 -38.3369 -38.3344 -38.3273
   -38.3221 -38.3218 -38.3208 -38.3134 -38.3114 -38.3107 -38.2895 -38.2877
   -38.2772 -38.2685 -38.2670 -38.2650 -38.2616 -38.2594 -38.2582 -38.2558
   -38.2476 -38.2420 -38.2405 -38.2393 -38.2155 -38.2116 -38.2091 -38.2078
   -38.2047 -38.2046 -38.1919 -38.1912 -38.1783 -38.1747 -38.1720 -38.1607
   -38.1558 -38.1547 -38.1399 -38.1356 -38.1328 -38.1295 -38.1229 -38.1222
   -38.1149 -38.1136 -38.1005 -38.0971 -38.0957 -38.0912 -38.0713 -38.0704
   -38.0600 -38.0577 -38.0468 -38.0449 -38.0340 -38.0331 -38.0229 -38.0179
   -38.0175 -38.0153 -38.0112 -38.0086 -37.9962 -37.9938 -37.9928 -37.9905
   -37.9806 -37.9803 -37.9799 -37.9795 -37.9451 -37.9448 -37.9411 -37.9407
   -37.9308 -37.9303 -37.9214 -37.9212 -37.9030 -37.8901 -37.8880 -37.8862
   -37.7747 -37.7671 -37.7643 -37.7572 -37.7494 -37.7490 -37.7422 -37.7355
   -12.3370 -12.3364 -11.9648 -11.9639 -11.9505 -11.9493 -11.7193 -11.7173
   -11.5488 -11.5476 -11.4232 -11.4231 -11.4109 -11.4080 -11.3861 -11.3854
   -11.2035 -11.2022 -11.1843 -11.1842  -8.7879  -8.7878  -8.7532  -8.7531
    -7.8131  -3.0123  -3.0081  -2.9179  -2.9167  -2.8518  -2.8511  -2.8480
    -2.8461  -2.7242  -2.7237  -2.6075  -2.6063  -2.4446  -2.4411  -2.3791
    -2.3762  -2.3237  -2.3202  -2.1986  -2.1946  -2.1128  -2.1117  -1.9188
    -1.9182  -1.7802  -1.7750  -1.7324  -1.7307  -1.6492  -1.6436  -1.5209
    -1.5202  -1.5163  -1.5126  -1.3938  -1.3908  -1.3410  -1.3397  -1.3241
    -1.3219  -1.2077  -1.2075  -1.1265  -1.1259  -1.1096  -1.1092  -0.9801
    -0.9780  -0.9321  -0.9316  -0.9178  -0.9122  -0.8110  -0.8102  -0.7680
    -0.7476  -0.6988  -0.6976  -0.6830  -0.5610  -0.5600  -0.0747  -0.0743
     0.9463   0.9463   1.1322   1.1324   1.3623   1.3626   1.3837   1.3841
     1.4597   1.4598   1.4760   1.4761   1.6178   1.6180   1.6271   1.6313
     1.8535   1.8558   1.8608   1.8614   2.0338   2.0348   2.0710   2.0737
     2.1634   2.1651   2.2952   2.2965   2.3191   2.3198   2.3507   2.3513
     2.3895   2.3912   2.4015   2.4045   2.5107   2.5131   2.6810   2.6859
     2.7366   2.7387   2.7580   2.7598   2.9529   2.9555   2.9737   2.9745
     3.0441   3.0446   3.1388   3.1446   3.2624   3.2631   3.3234   3.3255
     3.3575   3.3602   3.4549   3.4558   3.5512   3.5613   3.6077   3.6085
     3.6697   3.6752   3.7507   3.7531   3.8068   3.8122   3.8414   3.8460
     3.8780   3.8794   3.9043   3.9221   3.9373   3.9442   4.0659   4.0787
     4.0873   4.0934   4.2139   4.2208   4.2220   4.2583   4.2613   4.2829
     4.2939   4.2978   4.2995   4.3115   4.3778   4.3950   4.4068   4.4110
     4.4138   4.4154   4.5433   4.5464   4.5493   4.5619   4.6146   4.6158
     4.6346   4.6351   4.7465   4.7588   4.9232   4.9268   4.9302   4.9327
     4.9341   4.9584   4.9987   5.0183   5.0522   5.0554   5.0716   5.0758
     5.1204   5.1218   5.2040   5.2308   5.2790   5.2802   5.2917   5.2936
     5.3737   5.3743   5.4038   5.4316   5.4561   5.4609   5.5002   5.5184
     5.5215   5.5276   5.5341   5.5545   5.6415   5.6438   5.6800   5.6802
     5.6984   5.7014   5.7118   5.7260   5.7683   5.7841   5.8090   5.8140
     5.8201   5.8343   5.8464   5.8508   5.9008   5.9171   5.9390   5.9413
     5.9750   5.9891   6.0136   6.0346   6.0882   6.0989   6.1046   6.1125
     6.1139   6.1202   6.1291   6.1357   6.1456   6.1495   6.2772   6.2795
     6.2830   6.2882   6.3219   6.3267   6.3631   6.3645   6.3811   6.3839
     6.3986   6.4036   6.4316   6.4331   6.5500   6.5532   6.5580   6.5589
     6.5906   6.5976   6.6497   6.6535   6.7867   6.7918   6.7982   6.8029

          k = 0.2500 0.1443 0.0000 (108355 PWs)   bands (ev):

   -67.0728 -67.0487 -67.0393 -67.0391 -67.0227 -67.0213 -67.0208 -67.0147
   -67.0061 -67.0042 -67.0038 -67.0003 -67.0000 -66.9995 -66.9933 -66.9924
   -66.9899 -66.9889 -66.9858 -66.9815 -66.9803 -66.9788 -66.9764 -66.9762
   -66.8204 -66.8026 -66.7961 -66.7957 -66.7829 -66.7824 -66.7784 -66.7718
   -66.7714 -66.7690 -66.7650 -66.7645 -66.7334 -66.7107 -66.7017 -66.6996
   -66.6850 -66.6842 -66.6627 -66.6603 -66.6598 -66.6573 -66.6521 -66.6511
   -38.8770 -38.8572 -38.8491 -38.8474 -38.7463 -38.7457 -38.7449 -38.7193
   -38.7101 -38.7021 -38.7018 -38.6991 -38.6728 -38.6577 -38.6437 -38.6406
   -38.6132 -38.6111 -38.6017 -38.5928 -38.5885 -38.5870 -38.5811 -38.5587
   -38.5426 -38.5419 -38.5405 -38.5190 -38.4594 -38.4584 -38.4535 -38.4487
   -38.4456 -38.4391 -38.4385 -38.4374 -38.4324 -38.4248 -38.4085 -38.4048
   -38.4038 -38.3953 -38.3897 -38.3887 -38.3658 -38.3585 -38.3476 -38.3437
   -38.3427 -38.3417 -38.3411 -38.3409 -38.3361 -38.3312 -38.3283 -38.3243
   -38.3219 -38.3209 -38.3143 -38.3093 -38.3089 -38.3031 -38.2944 -38.2915
   -38.2879 -38.2860 -38.2855 -38.2743 -38.2691 -38.2682 -38.2674 -38.2382
   -38.2364 -38.2332 -38.2305 -38.2300 -38.2241 -38.2176 -38.2172 -38.2043
   -38.2026 -38.1979 -38.1970 -38.1820 -38.1756 -38.1737 -38.1669 -38.1615
   -38.1596 -38.1570 -38.1472 -38.1362 -38.1318 -38.1281 -38.1266 -38.1187
   -38.1170 -38.1077 -38.1052 -38.1028 -38.1013 -38.0861 -38.0846 -38.0813
   -38.0501 -38.0459 -38.0435 -38.0355 -38.0353 -38.0334 -38.0235 -38.0223
   -38.0204 -38.0183 -38.0166 -38.0009 -38.0004 -37.9963 -37.9953 -37.9894
   -37.9879 -37.9778 -37.9776 -37.9738 -37.9475 -37.9436 -37.9434 -37.9349
   -37.9344 -37.9316 -37.9214 -37.9138 -37.9053 -37.8920 -37.8853 -37.8852
   -37.7764 -37.7750 -37.7683 -37.7522 -37.7495 -37.7467 -37.7388 -37.7325
   -12.5136 -12.0865 -12.0649 -11.9303 -11.9294 -11.7981 -11.7116 -11.7095
   -11.6365 -11.6351 -11.5563 -11.4106 -11.4086 -11.3616 -11.3422 -11.3409
   -11.3306 -11.2770 -11.1118 -11.0916  -8.7863  -8.7862  -8.7749  -8.7342
    -7.8131  -3.0471  -3.0451  -3.0049  -2.8928  -2.8219  -2.8098  -2.7849
    -2.7810  -2.7793  -2.6649  -2.6627  -2.5138  -2.4739  -2.4278  -2.4230
    -2.4227  -2.3641  -2.3118  -2.2822  -2.2791  -2.2340  -2.0337  -1.8448
    -1.8426  -1.8000  -1.7085  -1.7065  -1.6519  -1.5577  -1.5576  -1.5149
    -1.4980  -1.4682  -1.4671  -1.4435  -1.3982  -1.3974  -1.3861  -1.3299
    -1.3288  -1.3127  -1.1990  -1.1576  -1.1393  -1.0911  -1.0371  -0.9828
    -0.9710  -0.9700  -0.9173  -0.9111  -0.9088  -0.8805  -0.8527  -0.8022
    -0.7305  -0.7298  -0.7087  -0.5805  -0.5370  -0.5364  -0.0742  -0.0739
     0.7026   1.1126   1.1444   1.1445   1.3836   1.3837   1.3933   1.3959
     1.4601   1.4788   1.4794   1.4985   1.5600   1.5986   1.6003   1.6129
     1.7149   1.7164   1.7599   1.9996   1.9999   2.0434   2.0939   2.0956
     2.1486   2.2007   2.2346   2.2369   2.2608   2.3586   2.3608   2.3770
     2.3879   2.3894   2.4521   2.4825   2.4835   2.5026   2.5236   2.5527
     2.6556   2.7359   2.7363   2.7988   2.9532   3.0024   3.0658   3.1357
     3.1365   3.1672   3.1730   3.2005   3.2977   3.3005   3.3257   3.3330
     3.3336   3.3751   3.4524   3.5268   3.5346   3.5451   3.5760   3.6215
     3.6367   3.6484   3.6570   3.6660   3.7129   3.7162   3.7193   3.8008
     3.9259   3.9407   3.9531   3.9606   3.9726   3.9791   3.9925   4.0830
     4.1081   4.1183   4.1790   4.1852   4.2113   4.2347   4.2376   4.2433
     4.2701   4.2963   4.3153   4.3158   4.3385   4.4160   4.4243   4.4295
     4.4341   4.5012   4.5095   4.6031   4.6279   4.6642   4.6752   4.7022
     4.7179   4.7220   4.7728   4.7836   4.8203   4.8630   4.8755   4.8782
     4.9109   4.9148   4.9391   5.0002   5.0213   5.0716   5.0782   5.1213
     5.1311   5.1688   5.2115   5.2360   5.2627   5.2925   5.3050   5.3837
     5.4020   5.4055   5.4062   5.4580   5.4843   5.4863   5.4955   5.5109
     5.5115   5.6124   5.6385   5.6504   5.6750   5.6868   5.6932   5.6976
     5.7066   5.7443   5.7477   5.7662   5.7722   5.8173   5.8249   5.8273
     5.8289   5.8719   5.8813   5.9021   5.9075   5.9138   5.9501   5.9554
     5.9593   5.9713   5.9789   5.9831   5.9967   5.9984   6.0280   6.1134
     6.1398   6.1426   6.1621   6.1849   6.1873   6.1910   6.1929   6.2444
     6.2497   6.2514   6.2526   6.3032   6.3344   6.3405   6.3429   6.3896
     6.4021   6.4064   6.4720   6.4746   6.4885   6.4948   6.5858   6.5908
     6.6090   6.6265   6.6349   6.6552   6.6767   6.6853   6.7348   6.7387

          k = 0.2500 0.4330 0.0000 (108308 PWs)   bands (ev):

   -67.0661 -67.0542 -67.0540 -67.0303 -67.0222 -67.0180 -67.0126 -67.0100
   -67.0096 -67.0075 -67.0073 -67.0015 -67.0010 -66.9978 -66.9965 -66.9942
   -66.9902 -66.9850 -66.9824 -66.9820 -66.9800 -66.9791 -66.9779 -66.9774
   -66.8154 -66.8066 -66.8065 -66.7899 -66.7833 -66.7770 -66.7738 -66.7736
   -66.7700 -66.7695 -66.7677 -66.7668 -66.7322 -66.7106 -66.7062 -66.6986
   -66.6840 -66.6831 -66.6610 -66.6603 -66.6583 -66.6573 -66.6542 -66.6520
   -38.8703 -38.8590 -38.8578 -38.8362 -38.7404 -38.7403 -38.7345 -38.7300
   -38.7154 -38.7080 -38.7045 -38.7033 -38.6725 -38.6632 -38.6631 -38.6236
   -38.6174 -38.6057 -38.6054 -38.5999 -38.5984 -38.5817 -38.5794 -38.5664
   -38.5314 -38.5307 -38.5298 -38.5186 -38.4948 -38.4474 -38.4471 -38.4464
   -38.4380 -38.4347 -38.4252 -38.4227 -38.4220 -38.4161 -38.4157 -38.4071
   -38.4007 -38.3942 -38.3938 -38.3923 -38.3757 -38.3701 -38.3688 -38.3497
   -38.3468 -38.3448 -38.3424 -38.3382 -38.3344 -38.3316 -38.3281 -38.3277
   -38.3254 -38.3228 -38.3190 -38.3138 -38.3107 -38.3093 -38.3085 -38.2754
   -38.2751 -38.2715 -38.2695 -38.2626 -38.2614 -38.2595 -38.2569 -38.2499
   -38.2485 -38.2440 -38.2430 -38.2406 -38.2173 -38.2105 -38.2095 -38.2031
   -38.2006 -38.1996 -38.1985 -38.1941 -38.1884 -38.1706 -38.1700 -38.1598
   -38.1560 -38.1549 -38.1382 -38.1378 -38.1348 -38.1296 -38.1281 -38.1234
   -38.1148 -38.1030 -38.1028 -38.0981 -38.0934 -38.0807 -38.0796 -38.0754
   -38.0603 -38.0490 -38.0488 -38.0438 -38.0354 -38.0318 -38.0255 -38.0215
   -38.0192 -38.0137 -38.0131 -38.0076 -37.9960 -37.9930 -37.9924 -37.9890
   -37.9849 -37.9833 -37.9751 -37.9749 -37.9496 -37.9491 -37.9378 -37.9368
   -37.9352 -37.9259 -37.9256 -37.9180 -37.9032 -37.8904 -37.8869 -37.8868
   -37.7723 -37.7704 -37.7632 -37.7586 -37.7518 -37.7439 -37.7439 -37.7354
   -12.3934 -12.1803 -12.1798 -11.9862 -11.8521 -11.8507 -11.8029 -11.6352
   -11.6095 -11.4991 -11.4803 -11.4795 -11.4639 -11.3992 -11.2876 -11.2858
   -11.2646 -11.2640 -11.1753 -11.1565  -8.7965  -8.7691  -8.7690  -8.7475
    -7.8131  -3.0613  -2.9629  -2.9613  -2.9451  -2.8337  -2.8321  -2.7914
    -2.7561  -2.7043  -2.6910  -2.6686  -2.6670  -2.6225  -2.4316  -2.2993
    -2.2953  -2.2838  -2.2598  -2.2067  -2.2040  -2.1615  -2.1597  -2.0336
    -1.8575  -1.8511  -1.7704  -1.7443  -1.6569  -1.6041  -1.6013  -1.5241
    -1.4994  -1.4804  -1.4493  -1.4477  -1.4426  -1.4425  -1.3825  -1.2635
    -1.2635  -1.2186  -1.2179  -1.1964  -1.1502  -1.0371  -1.0126  -1.0117
    -0.9587  -0.9455  -0.9369  -0.9186  -0.8894  -0.8860  -0.8310  -0.8301
    -0.7379  -0.7007  -0.6396  -0.6290  -0.6251  -0.5319  -0.0746  -0.0743
     0.8796   1.0639   1.0642   1.1649   1.3490   1.3653   1.3658   1.3682
     1.4117   1.4931   1.4932   1.5204   1.5861   1.6050   1.6059   1.6633
     1.7812   1.8999   1.9008   1.9884   1.9896   2.0528   2.0538   2.1116
     2.1186   2.1804   2.1806   2.2126   2.2867   2.2923   2.3275   2.3276
     2.3789   2.4283   2.4952   2.5215   2.5227   2.6054   2.6070   2.7226
     2.7242   2.7285   2.7611   2.7645   2.8628   2.8666   2.8674   2.9336
     3.1153   3.1787   3.2237   3.2250   3.2702   3.2706   3.2769   3.3637
     3.3679   3.3689   3.3857   3.4938   3.5131   3.5141   3.5833   3.6412
     3.6537   3.6881   3.6920   3.7216   3.7243   3.7819   3.8036   3.8208
     3.9602   3.9649   3.9855   4.0014   4.0028   4.0139   4.0142   4.0557
     4.0928   4.0980   4.1348   4.1718   4.1759   4.2311   4.2405   4.2630
     4.2941   4.2968   4.3284   4.3368   4.3690   4.3725   4.3968   4.4017
     4.4960   4.4973   4.5208   4.5323   4.5370   4.5393   4.5599   4.6100
     4.6645   4.7953   4.7964   4.8173   4.8213   4.8300   4.8389   4.8424
     4.8901   4.9178   4.9766   4.9947   5.0582   5.0792   5.0969   5.1014
     5.1185   5.2108   5.2257   5.2499   5.2555   5.2824   5.3204   5.3595
     5.3717   5.3718   5.3885   5.4185   5.4438   5.4524   5.4704   5.5194
     5.5353   5.5567   5.5675   5.6465   5.6610   5.6624   5.6717   5.6720
     5.7067   5.7115   5.7130   5.7158   5.7290   5.7942   5.7964   5.8109
     5.8122   5.8261   5.8402   5.8589   5.8644   5.9035   5.9124   5.9667
     5.9669   5.9759   6.0026   6.0100   6.0300   6.0385   6.0439   6.1090
     6.1139   6.1172   6.1484   6.1524   6.1735   6.2054   6.2254   6.2358
     6.2743   6.2828   6.3071   6.3112   6.3675   6.3968   6.4011   6.4356
     6.4382   6.4383   6.5006   6.5022   6.5316   6.5537   6.5869   6.6072
     6.6103   6.6176   6.6500   6.6623   6.6675   6.7320   6.7854   6.7895

          k = 0.2500-0.4330 0.0000 (108308 PWs)   bands (ev):

   -67.0661 -67.0542 -67.0540 -67.0303 -67.0222 -67.0180 -67.0126 -67.0100
   -67.0096 -67.0075 -67.0073 -67.0015 -67.0010 -66.9978 -66.9965 -66.9942
   -66.9902 -66.9850 -66.9824 -66.9820 -66.9800 -66.9791 -66.9779 -66.9774
   -66.8154 -66.8066 -66.8065 -66.7899 -66.7833 -66.7770 -66.7738 -66.7737
   -66.7700 -66.7695 -66.7677 -66.7668 -66.7322 -66.7106 -66.7062 -66.6986
   -66.6840 -66.6831 -66.6610 -66.6603 -66.6583 -66.6573 -66.6542 -66.6520
   -38.8703 -38.8590 -38.8578 -38.8362 -38.7404 -38.7403 -38.7345 -38.7300
   -38.7154 -38.7080 -38.7045 -38.7033 -38.6725 -38.6632 -38.6631 -38.6236
   -38.6174 -38.6057 -38.6054 -38.5999 -38.5984 -38.5817 -38.5794 -38.5664
   -38.5314 -38.5307 -38.5298 -38.5186 -38.4948 -38.4474 -38.4471 -38.4464
   -38.4380 -38.4347 -38.4252 -38.4227 -38.4220 -38.4161 -38.4157 -38.4071
   -38.4007 -38.3942 -38.3938 -38.3923 -38.3757 -38.3701 -38.3688 -38.3497
   -38.3468 -38.3448 -38.3424 -38.3383 -38.3344 -38.3316 -38.3281 -38.3277
   -38.3254 -38.3228 -38.3190 -38.3138 -38.3107 -38.3093 -38.3085 -38.2754
   -38.2751 -38.2715 -38.2695 -38.2626 -38.2614 -38.2595 -38.2569 -38.2499
   -38.2485 -38.2440 -38.2430 -38.2406 -38.2173 -38.2105 -38.2095 -38.2031
   -38.2006 -38.1996 -38.1985 -38.1941 -38.1884 -38.1706 -38.1700 -38.1598
   -38.1561 -38.1549 -38.1382 -38.1378 -38.1348 -38.1296 -38.1281 -38.1234
   -38.1148 -38.1030 -38.1028 -38.0981 -38.0934 -38.0807 -38.0796 -38.0754
   -38.0603 -38.0490 -38.0488 -38.0438 -38.0354 -38.0318 -38.0255 -38.0215
   -38.0192 -38.0137 -38.0131 -38.0076 -37.9960 -37.9930 -37.9924 -37.9890
   -37.9849 -37.9833 -37.9751 -37.9749 -37.9496 -37.9491 -37.9378 -37.9368
   -37.9352 -37.9259 -37.9256 -37.9180 -37.9032 -37.8904 -37.8869 -37.8868
   -37.7723 -37.7704 -37.7632 -37.7586 -37.7518 -37.7439 -37.7439 -37.7354
   -12.3934 -12.1803 -12.1798 -11.9862 -11.8521 -11.8507 -11.8029 -11.6352
   -11.6095 -11.4991 -11.4803 -11.4795 -11.4639 -11.3992 -11.2876 -11.2858
   -11.2646 -11.2640 -11.1753 -11.1565  -8.7965  -8.7691  -8.7690  -8.7475
    -7.8131  -3.0613  -2.9629  -2.9613  -2.9451  -2.8337  -2.8321  -2.7914
    -2.7561  -2.7043  -2.6910  -2.6686  -2.6670  -2.6225  -2.4316  -2.2993
    -2.2953  -2.2838  -2.2598  -2.2067  -2.2040  -2.1615  -2.1597  -2.0336
    -1.8575  -1.8511  -1.7704  -1.7443  -1.6569  -1.6041  -1.6013  -1.5241
    -1.4994  -1.4804  -1.4493  -1.4477  -1.4426  -1.4425  -1.3825  -1.2635
    -1.2635  -1.2186  -1.2179  -1.1964  -1.1502  -1.0371  -1.0126  -1.0117
    -0.9587  -0.9455  -0.9369  -0.9186  -0.8894  -0.8860  -0.8310  -0.8300
    -0.7379  -0.7007  -0.6396  -0.6290  -0.6251  -0.5319  -0.0746  -0.0744
     0.8796   1.0639   1.0642   1.1649   1.3490   1.3653   1.3658   1.3682
     1.4117   1.4931   1.4932   1.5204   1.5861   1.6050   1.6059   1.6633
     1.7812   1.8999   1.9008   1.9884   1.9896   2.0528   2.0538   2.1116
     2.1186   2.1804   2.1806   2.2126   2.2867   2.2923   2.3275   2.3276
     2.3789   2.4283   2.4952   2.5215   2.5227   2.6054   2.6070   2.7226
     2.7242   2.7285   2.7611   2.7645   2.8628   2.8666   2.8674   2.9336
     3.1153   3.1787   3.2237   3.2250   3.2702   3.2706   3.2769   3.3637
     3.3679   3.3689   3.3857   3.4938   3.5131   3.5141   3.5833   3.6412
     3.6537   3.6881   3.6919   3.7215   3.7243   3.7819   3.8036   3.8208
     3.9602   3.9650   3.9855   4.0014   4.0028   4.0139   4.0142   4.0557
     4.0928   4.0980   4.1348   4.1718   4.1759   4.2311   4.2405   4.2630
     4.2941   4.2968   4.3284   4.3368   4.3689   4.3726   4.3968   4.4017
     4.4960   4.4973   4.5208   4.5323   4.5370   4.5393   4.5600   4.6100
     4.6645   4.7953   4.7964   4.8173   4.8213   4.8300   4.8389   4.8424
     4.8901   4.9178   4.9766   4.9946   5.0582   5.0791   5.0969   5.1014
     5.1185   5.2108   5.2257   5.2499   5.2554   5.2824   5.3204   5.3595
     5.3717   5.3718   5.3885   5.4185   5.4438   5.4524   5.4704   5.5194
     5.5353   5.5567   5.5675   5.6465   5.6610   5.6624   5.6717   5.6720
     5.7067   5.7115   5.7130   5.7158   5.7290   5.7942   5.7964   5.8109
     5.8122   5.8261   5.8402   5.8589   5.8644   5.9035   5.9124   5.9667
     5.9669   5.9759   6.0026   6.0100   6.0300   6.0385   6.0439   6.1090
     6.1139   6.1172   6.1484   6.1524   6.1735   6.2054   6.2254   6.2358
     6.2743   6.2828   6.3071   6.3112   6.3675   6.3968   6.4011   6.4356
     6.4382   6.4383   6.5006   6.5022   6.5316   6.5537   6.5869   6.6072
     6.6102   6.6176   6.6500   6.6623   6.6675   6.7319   6.7854   6.7893

          k = 0.2500-0.1443 0.0000 (108355 PWs)   bands (ev):

   -67.0728 -67.0487 -67.0393 -67.0391 -67.0227 -67.0213 -67.0208 -67.0147
   -67.0061 -67.0042 -67.0038 -67.0003 -67.0000 -66.9995 -66.9933 -66.9924
   -66.9899 -66.9889 -66.9858 -66.9815 -66.9803 -66.9788 -66.9764 -66.9762
   -66.8204 -66.8026 -66.7961 -66.7957 -66.7829 -66.7824 -66.7784 -66.7718
   -66.7714 -66.7690 -66.7650 -66.7645 -66.7334 -66.7107 -66.7017 -66.6996
   -66.6850 -66.6842 -66.6627 -66.6603 -66.6598 -66.6573 -66.6521 -66.6511
   -38.8770 -38.8572 -38.8491 -38.8474 -38.7463 -38.7457 -38.7449 -38.7193
   -38.7101 -38.7021 -38.7018 -38.6991 -38.6728 -38.6577 -38.6437 -38.6407
   -38.6132 -38.6111 -38.6017 -38.5928 -38.5885 -38.5870 -38.5811 -38.5587
   -38.5426 -38.5419 -38.5405 -38.5190 -38.4594 -38.4584 -38.4535 -38.4487
   -38.4456 -38.4391 -38.4385 -38.4374 -38.4324 -38.4248 -38.4085 -38.4048
   -38.4038 -38.3953 -38.3897 -38.3887 -38.3658 -38.3585 -38.3476 -38.3437
   -38.3427 -38.3417 -38.3411 -38.3409 -38.3361 -38.3312 -38.3283 -38.3243
   -38.3219 -38.3209 -38.3143 -38.3093 -38.3089 -38.3031 -38.2944 -38.2915
   -38.2879 -38.2860 -38.2855 -38.2743 -38.2691 -38.2682 -38.2674 -38.2382
   -38.2364 -38.2332 -38.2305 -38.2300 -38.2241 -38.2176 -38.2172 -38.2043
   -38.2026 -38.1979 -38.1970 -38.1820 -38.1756 -38.1737 -38.1669 -38.1615
   -38.1596 -38.1570 -38.1472 -38.1362 -38.1318 -38.1281 -38.1266 -38.1187
   -38.1170 -38.1077 -38.1052 -38.1028 -38.1013 -38.0861 -38.0846 -38.0813
   -38.0501 -38.0459 -38.0435 -38.0355 -38.0353 -38.0334 -38.0235 -38.0223
   -38.0204 -38.0183 -38.0166 -38.0009 -38.0004 -37.9964 -37.9953 -37.9894
   -37.9879 -37.9778 -37.9776 -37.9738 -37.9475 -37.9436 -37.9434 -37.9349
   -37.9344 -37.9316 -37.9214 -37.9138 -37.9053 -37.8920 -37.8853 -37.8852
   -37.7764 -37.7750 -37.7683 -37.7522 -37.7494 -37.7467 -37.7388 -37.7325
   -12.5136 -12.0865 -12.0649 -11.9303 -11.9294 -11.7981 -11.7116 -11.7095
   -11.6365 -11.6351 -11.5563 -11.4106 -11.4086 -11.3616 -11.3422 -11.3408
   -11.3306 -11.2770 -11.1118 -11.0916  -8.7863  -8.7862  -8.7749  -8.7342
    -7.8131  -3.0471  -3.0451  -3.0049  -2.8928  -2.8219  -2.8098  -2.7849
    -2.7810  -2.7793  -2.6649  -2.6627  -2.5138  -2.4739  -2.4278  -2.4230
    -2.4227  -2.3641  -2.3118  -2.2822  -2.2791  -2.2340  -2.0337  -1.8448
    -1.8426  -1.8000  -1.7084  -1.7065  -1.6519  -1.5577  -1.5576  -1.5149
    -1.4980  -1.4682  -1.4671  -1.4435  -1.3982  -1.3974  -1.3861  -1.3299
    -1.3288  -1.3127  -1.1990  -1.1576  -1.1393  -1.0911  -1.0371  -0.9828
    -0.9710  -0.9700  -0.9173  -0.9111  -0.9088  -0.8805  -0.8527  -0.8022
    -0.7306  -0.7298  -0.7087  -0.5805  -0.5370  -0.5363  -0.0742  -0.0740
     0.7026   1.1126   1.1444   1.1445   1.3836   1.3837   1.3933   1.3959
     1.4601   1.4788   1.4794   1.4985   1.5600   1.5986   1.6003   1.6129
     1.7149   1.7164   1.7599   1.9996   1.9999   2.0434   2.0939   2.0956
     2.1486   2.2007   2.2346   2.2369   2.2608   2.3586   2.3608   2.3770
     2.3879   2.3894   2.4521   2.4826   2.4835   2.5026   2.5236   2.5527
     2.6556   2.7359   2.7363   2.7988   2.9532   3.0024   3.0658   3.1357
     3.1365   3.1672   3.1730   3.2005   3.2977   3.3005   3.3257   3.3330
     3.3336   3.3752   3.4524   3.5268   3.5346   3.5451   3.5760   3.6215
     3.6367   3.6484   3.6570   3.6660   3.7129   3.7162   3.7193   3.8008
     3.9259   3.9407   3.9530   3.9606   3.9726   3.9791   3.9925   4.0830
     4.1081   4.1183   4.1790   4.1852   4.2113   4.2347   4.2376   4.2433
     4.2701   4.2963   4.3153   4.3158   4.3385   4.4160   4.4243   4.4295
     4.4341   4.5012   4.5095   4.6031   4.6279   4.6642   4.6752   4.7022
     4.7179   4.7220   4.7728   4.7836   4.8203   4.8630   4.8755   4.8782
     4.9109   4.9148   4.9391   5.0002   5.0213   5.0716   5.0783   5.1213
     5.1311   5.1687   5.2115   5.2360   5.2627   5.2925   5.3050   5.3837
     5.4020   5.4055   5.4062   5.4580   5.4843   5.4863   5.4955   5.5109
     5.5116   5.6124   5.6385   5.6504   5.6750   5.6868   5.6932   5.6976
     5.7066   5.7443   5.7477   5.7662   5.7721   5.8173   5.8249   5.8273
     5.8289   5.8719   5.8813   5.9021   5.9075   5.9138   5.9501   5.9554
     5.9593   5.9713   5.9789   5.9831   5.9967   5.9984   6.0280   6.1134
     6.1398   6.1426   6.1621   6.1849   6.1873   6.1910   6.1929   6.2444
     6.2497   6.2514   6.2526   6.3032   6.3344   6.3405   6.3429   6.3896
     6.4022   6.4064   6.4720   6.4746   6.4885   6.4948   6.5858   6.5909
     6.6090   6.6266   6.6349   6.6551   6.6766   6.6852   6.7345   6.7375

          k =-0.5000-0.2887 0.0000 (108310 PWs)   bands (ev):

   -67.0631 -67.0628 -67.0415 -67.0412 -67.0161 -67.0157 -67.0136 -67.0131
   -67.0098 -67.0096 -67.0024 -67.0015 -67.0013 -67.0009 -66.9965 -66.9963
   -66.9858 -66.9844 -66.9840 -66.9832 -66.9801 -66.9790 -66.9779 -66.9772
   -66.8131 -66.8130 -66.7976 -66.7972 -66.7780 -66.7774 -66.7752 -66.7749
   -66.7703 -66.7699 -66.7670 -66.7667 -66.7322 -66.7116 -66.7039 -66.7003
   -66.6840 -66.6828 -66.6621 -66.6590 -66.6582 -66.6567 -66.6555 -66.6516
   -38.8682 -38.8673 -38.8448 -38.8432 -38.7402 -38.7379 -38.7350 -38.7336
   -38.7109 -38.7086 -38.7059 -38.7047 -38.6719 -38.6709 -38.6459 -38.6426
   -38.6099 -38.6067 -38.5993 -38.5986 -38.5947 -38.5916 -38.5738 -38.5716
   -38.5355 -38.5345 -38.5231 -38.5224 -38.4689 -38.4676 -38.4450 -38.4441
   -38.4383 -38.4379 -38.4293 -38.4290 -38.4176 -38.4172 -38.4068 -38.4059
   -38.4012 -38.4006 -38.3934 -38.3912 -38.3796 -38.3787 -38.3502 -38.3456
   -38.3452 -38.3449 -38.3410 -38.3405 -38.3399 -38.3369 -38.3344 -38.3273
   -38.3221 -38.3218 -38.3208 -38.3134 -38.3114 -38.3107 -38.2895 -38.2877
   -38.2772 -38.2685 -38.2670 -38.2650 -38.2616 -38.2594 -38.2582 -38.2558
   -38.2476 -38.2419 -38.2405 -38.2393 -38.2155 -38.2116 -38.2091 -38.2078
   -38.2047 -38.2046 -38.1919 -38.1912 -38.1783 -38.1747 -38.1720 -38.1607
   -38.1558 -38.1547 -38.1399 -38.1356 -38.1328 -38.1295 -38.1229 -38.1222
   -38.1149 -38.1136 -38.1005 -38.0971 -38.0957 -38.0912 -38.0713 -38.0704
   -38.0600 -38.0577 -38.0468 -38.0449 -38.0340 -38.0331 -38.0228 -38.0179
   -38.0175 -38.0153 -38.0112 -38.0086 -37.9962 -37.9938 -37.9928 -37.9905
   -37.9806 -37.9803 -37.9799 -37.9795 -37.9451 -37.9448 -37.9411 -37.9407
   -37.9308 -37.9303 -37.9214 -37.9212 -37.9030 -37.8901 -37.8880 -37.8862
   -37.7747 -37.7671 -37.7643 -37.7572 -37.7494 -37.7490 -37.7422 -37.7355
   -12.3370 -12.3364 -11.9648 -11.9639 -11.9505 -11.9493 -11.7193 -11.7173
   -11.5488 -11.5476 -11.4232 -11.4231 -11.4109 -11.4080 -11.3861 -11.3854
   -11.2035 -11.2022 -11.1843 -11.1842  -8.7879  -8.7878  -8.7532  -8.7531
    -7.8131  -3.0123  -3.0081  -2.9179  -2.9167  -2.8518  -2.8511  -2.8480
    -2.8461  -2.7243  -2.7237  -2.6075  -2.6063  -2.4446  -2.4411  -2.3791
    -2.3762  -2.3237  -2.3202  -2.1986  -2.1946  -2.1128  -2.1117  -1.9188
    -1.9182  -1.7802  -1.7750  -1.7324  -1.7307  -1.6492  -1.6436  -1.5209
    -1.5202  -1.5163  -1.5126  -1.3937  -1.3908  -1.3410  -1.3397  -1.3241
    -1.3219  -1.2077  -1.2075  -1.1265  -1.1259  -1.1096  -1.1092  -0.9801
    -0.9780  -0.9321  -0.9316  -0.9178  -0.9122  -0.8110  -0.8102  -0.7680
    -0.7476  -0.6988  -0.6976  -0.6830  -0.5610  -0.5600  -0.0747  -0.0742
     0.9463   0.9463   1.1322   1.1324   1.3623   1.3626   1.3837   1.3841
     1.4597   1.4598   1.4760   1.4761   1.6178   1.6180   1.6271   1.6313
     1.8535   1.8558   1.8608   1.8614   2.0338   2.0348   2.0710   2.0737
     2.1634   2.1651   2.2952   2.2965   2.3191   2.3198   2.3507   2.3513
     2.3895   2.3912   2.4015   2.4045   2.5107   2.5131   2.6810   2.6859
     2.7365   2.7387   2.7580   2.7598   2.9529   2.9555   2.9737   2.9745
     3.0441   3.0446   3.1388   3.1446   3.2624   3.2631   3.3234   3.3255
     3.3575   3.3602   3.4549   3.4558   3.5512   3.5613   3.6077   3.6085
     3.6697   3.6752   3.7507   3.7531   3.8068   3.8122   3.8414   3.8460
     3.8780   3.8794   3.9043   3.9221   3.9373   3.9442   4.0659   4.0787
     4.0873   4.0934   4.2139   4.2208   4.2220   4.2583   4.2613   4.2829
     4.2939   4.2978   4.2995   4.3115   4.3778   4.3950   4.4068   4.4110
     4.4138   4.4154   4.5433   4.5464   4.5493   4.5619   4.6146   4.6158
     4.6346   4.6351   4.7465   4.7588   4.9232   4.9268   4.9302   4.9327
     4.9341   4.9584   4.9987   5.0183   5.0522   5.0554   5.0716   5.0758
     5.1204   5.1218   5.2040   5.2308   5.2790   5.2802   5.2917   5.2936
     5.3737   5.3743   5.4038   5.4316   5.4561   5.4609   5.5002   5.5184
     5.5215   5.5276   5.5341   5.5545   5.6415   5.6438   5.6800   5.6802
     5.6984   5.7014   5.7118   5.7260   5.7683   5.7841   5.8090   5.8140
     5.8201   5.8343   5.8464   5.8508   5.9008   5.9171   5.9390   5.9413
     5.9750   5.9891   6.0136   6.0346   6.0882   6.0989   6.1046   6.1125
     6.1139   6.1202   6.1291   6.1357   6.1456   6.1495   6.2772   6.2795
     6.2830   6.2882   6.3219   6.3267   6.3631   6.3645   6.3811   6.3839
     6.3986   6.4037   6.4316   6.4331   6.5500   6.5532   6.5580   6.5589
     6.5906   6.5976   6.6497   6.6535   6.7865   6.7915   6.7980   6.8023

          k =-0.5000 0.0000 0.0000 (108308 PWs)   bands (ev):

   -67.0661 -67.0542 -67.0540 -67.0303 -67.0222 -67.0180 -67.0126 -67.0100
   -67.0096 -67.0075 -67.0073 -67.0015 -67.0010 -66.9978 -66.9965 -66.9942
   -66.9902 -66.9850 -66.9824 -66.9820 -66.9800 -66.9791 -66.9779 -66.9774
   -66.8154 -66.8066 -66.8065 -66.7899 -66.7833 -66.7770 -66.7738 -66.7737
   -66.7700 -66.7695 -66.7677 -66.7668 -66.7322 -66.7106 -66.7062 -66.6986
   -66.6840 -66.6831 -66.6610 -66.6603 -66.6583 -66.6573 -66.6542 -66.6520
   -38.8703 -38.8590 -38.8578 -38.8362 -38.7404 -38.7403 -38.7345 -38.7300
   -38.7154 -38.7080 -38.7045 -38.7033 -38.6725 -38.6632 -38.6631 -38.6236
   -38.6174 -38.6057 -38.6054 -38.5999 -38.5984 -38.5817 -38.5794 -38.5664
   -38.5314 -38.5307 -38.5298 -38.5186 -38.4948 -38.4474 -38.4471 -38.4464
   -38.4380 -38.4347 -38.4252 -38.4227 -38.4220 -38.4161 -38.4157 -38.4071
   -38.4007 -38.3942 -38.3938 -38.3923 -38.3757 -38.3701 -38.3688 -38.3497
   -38.3468 -38.3448 -38.3424 -38.3382 -38.3344 -38.3316 -38.3281 -38.3277
   -38.3254 -38.3228 -38.3190 -38.3138 -38.3107 -38.3093 -38.3085 -38.2754
   -38.2751 -38.2715 -38.2695 -38.2626 -38.2614 -38.2595 -38.2569 -38.2499
   -38.2485 -38.2440 -38.2430 -38.2406 -38.2173 -38.2105 -38.2095 -38.2031
   -38.2006 -38.1996 -38.1985 -38.1942 -38.1884 -38.1706 -38.1700 -38.1598
   -38.1561 -38.1549 -38.1382 -38.1378 -38.1348 -38.1296 -38.1281 -38.1234
   -38.1148 -38.1030 -38.1028 -38.0981 -38.0934 -38.0807 -38.0796 -38.0754
   -38.0603 -38.0489 -38.0488 -38.0438 -38.0354 -38.0318 -38.0255 -38.0215
   -38.0192 -38.0137 -38.0131 -38.0076 -37.9960 -37.9930 -37.9924 -37.9890
   -37.9849 -37.9833 -37.9751 -37.9749 -37.9496 -37.9491 -37.9378 -37.9368
   -37.9352 -37.9259 -37.9256 -37.9180 -37.9032 -37.8904 -37.8869 -37.8868
   -37.7723 -37.7704 -37.7632 -37.7586 -37.7518 -37.7439 -37.7439 -37.7354
   -12.3934 -12.1803 -12.1798 -11.9862 -11.8521 -11.8507 -11.8029 -11.6352
   -11.6095 -11.4991 -11.4803 -11.4795 -11.4639 -11.3992 -11.2876 -11.2858
   -11.2646 -11.2640 -11.1753 -11.1565  -8.7965  -8.7691  -8.7690  -8.7475
    -7.8131  -3.0613  -2.9629  -2.9613  -2.9451  -2.8337  -2.8321  -2.7914
    -2.7561  -2.7043  -2.6910  -2.6686  -2.6670  -2.6225  -2.4316  -2.2993
    -2.2953  -2.2838  -2.2598  -2.2067  -2.2040  -2.1615  -2.1597  -2.0336
    -1.8575  -1.8511  -1.7704  -1.7443  -1.6569  -1.6041  -1.6013  -1.5241
    -1.4994  -1.4804  -1.4493  -1.4477  -1.4426  -1.4425  -1.3825  -1.2635
    -1.2635  -1.2186  -1.2179  -1.1964  -1.1502  -1.0371  -1.0126  -1.0117
    -0.9587  -0.9455  -0.9369  -0.9186  -0.8894  -0.8860  -0.8310  -0.8301
    -0.7379  -0.7007  -0.6396  -0.6290  -0.6251  -0.5319  -0.0746  -0.0743
     0.8796   1.0639   1.0642   1.1649   1.3490   1.3653   1.3658   1.3682
     1.4117   1.4931   1.4932   1.5204   1.5861   1.6050   1.6059   1.6633
     1.7812   1.8999   1.9008   1.9884   1.9896   2.0528   2.0538   2.1116
     2.1186   2.1804   2.1806   2.2126   2.2867   2.2923   2.3275   2.3276
     2.3789   2.4283   2.4952   2.5215   2.5227   2.6054   2.6070   2.7226
     2.7242   2.7285   2.7611   2.7645   2.8628   2.8666   2.8674   2.9336
     3.1153   3.1787   3.2237   3.2250   3.2702   3.2706   3.2769   3.3637
     3.3679   3.3689   3.3857   3.4938   3.5131   3.5141   3.5833   3.6412
     3.6537   3.6881   3.6919   3.7215   3.7243   3.7819   3.8036   3.8208
     3.9602   3.9650   3.9855   4.0014   4.0028   4.0139   4.0142   4.0557
     4.0928   4.0980   4.1348   4.1718   4.1759   4.2311   4.2405   4.2630
     4.2941   4.2968   4.3284   4.3368   4.3690   4.3726   4.3968   4.4017
     4.4960   4.4973   4.5208   4.5323   4.5370   4.5393   4.5600   4.6100
     4.6645   4.7953   4.7964   4.8173   4.8213   4.8300   4.8389   4.8424
     4.8901   4.9178   4.9766   4.9946   5.0582   5.0791   5.0969   5.1014
     5.1185   5.2108   5.2257   5.2499   5.2554   5.2824   5.3204   5.3595
     5.3717   5.3718   5.3885   5.4185   5.4438   5.4524   5.4704   5.5194
     5.5353   5.5567   5.5675   5.6465   5.6610   5.6624   5.6717   5.6720
     5.7067   5.7115   5.7130   5.7158   5.7290   5.7942   5.7964   5.8109
     5.8122   5.8261   5.8402   5.8589   5.8644   5.9035   5.9124   5.9667
     5.9669   5.9759   6.0026   6.0100   6.0300   6.0385   6.0439   6.1090
     6.1139   6.1172   6.1484   6.1524   6.1735   6.2054   6.2254   6.2358
     6.2743   6.2828   6.3071   6.3112   6.3675   6.3968   6.4011   6.4356
     6.4382   6.4383   6.5007   6.5022   6.5316   6.5537   6.5869   6.6073
     6.6106   6.6177   6.6501   6.6623   6.6677   6.7323   6.7868   6.7943

          k =-0.5000-0.8660 0.0000 (108310 PWs)   bands (ev):

   -67.0631 -67.0628 -67.0415 -67.0412 -67.0161 -67.0157 -67.0135 -67.0131
   -67.0098 -67.0096 -67.0024 -67.0015 -67.0013 -67.0009 -66.9965 -66.9963
   -66.9858 -66.9844 -66.9840 -66.9832 -66.9801 -66.9790 -66.9779 -66.9772
   -66.8131 -66.8130 -66.7976 -66.7972 -66.7780 -66.7774 -66.7752 -66.7749
[...]
     6.5820   6.6252   6.6532   6.6546   6.6642   6.7242   6.7789   6.7797

          k =-0.5000-0.8660 0.0000 (108310 PWs)   bands (ev):

   -67.0786 -67.0780 -67.0576 -67.0572 -67.0312 -67.0304 -67.0284 -67.0281
   -67.0278 -67.0271 -67.0204 -67.0198 -67.0160 -67.0150 -67.0135 -67.0129
   -66.9960 -66.9953 -66.9941 -66.9936 -66.9896 -66.9890 -66.9868 -66.9866
   -66.8365 -66.8364 -66.8236 -66.8234 -66.7915 -66.7913 -66.7869 -66.7868
   -66.7845 -66.7844 -66.7808 -66.7806 -66.7329 -66.7302 -66.7208 -66.7189
   -66.6846 -66.6821 -66.6799 -66.6750 -66.6748 -66.6734 -66.6720 -66.6701
   -38.8709 -38.8699 -38.8474 -38.8460 -38.7445 -38.7437 -38.7427 -38.7417
   -38.7206 -38.7204 -38.7194 -38.7193 -38.6831 -38.6829 -38.6532 -38.6524
   -38.6232 -38.6229 -38.6195 -38.6194 -38.6188 -38.6184 -38.5965 -38.5964
   -38.5456 -38.5451 -38.5391 -38.5386 -38.5353 -38.5351 -38.5159 -38.5154
   -38.4806 -38.4796 -38.4435 -38.4434 -38.4374 -38.4365 -38.4206 -38.4202
   -38.4131 -38.4128 -38.4103 -38.4094 -38.3951 -38.3950 -38.3781 -38.3781
   -38.3755 -38.3753 -38.3688 -38.3686 -38.3558 -38.3554 -38.3546 -38.3541
   -38.3393 -38.3392 -38.3359 -38.3350 -38.3309 -38.3301 -38.3024 -38.3021
   -38.2943 -38.2925 -38.2892 -38.2884 -38.2749 -38.2743 -38.2735 -38.2727
   -38.2571 -38.2564 -38.2530 -38.2524 -38.2318 -38.2311 -38.2252 -38.2248
   -38.2170 -38.2164 -38.2062 -38.2058 -38.1962 -38.1959 -38.1793 -38.1787
   -38.1545 -38.1502 -38.1489 -38.1454 -38.1447 -38.1418 -38.1336 -38.1326
   -38.1108 -38.1101 -38.1028 -38.1022 -38.1004 -38.0985 -38.0796 -38.0785
   -38.0689 -38.0678 -38.0500 -38.0493 -38.0328 -38.0320 -38.0319 -38.0309
   -38.0262 -38.0252 -38.0195 -38.0188 -38.0077 -38.0069 -38.0044 -38.0040
   -37.9992 -37.9990 -37.9987 -37.9984 -37.9566 -37.9564 -37.9480 -37.9480
   -37.9409 -37.9408 -37.9301 -37.9299 -37.9122 -37.9118 -37.9086 -37.9081
   -37.7857 -37.7831 -37.7758 -37.7702 -37.7654 -37.7620 -37.7532 -37.7510
   -12.3030 -12.3022 -11.9316 -11.9308 -11.9207 -11.9206 -11.6776 -11.6773
   -11.5127 -11.5121 -11.4035 -11.4027 -11.3889 -11.3868 -11.3030 -11.3025
   -11.1831 -11.1813 -11.0910 -11.0905  -9.3243  -9.3242  -9.2615  -9.2614
    -6.9706  -2.9869  -2.9864  -2.8850  -2.8840  -2.8217  -2.8216  -2.8068
    -2.8059  -2.6800  -2.6788  -2.5720  -2.5719  -2.4005  -2.3998  -2.3502
    -2.3496  -2.2965  -2.2963  -2.1433  -2.1432  -2.0747  -2.0735  -1.8825
    -1.8809  -1.7470  -1.7464  -1.6917  -1.6907  -1.6036  -1.6030  -1.4902
    -1.4881  -1.4771  -1.4748  -1.3716  -1.3713  -1.3061  -1.3043  -1.2789
    -1.2772  -1.1655  -1.1647  -1.0917  -1.0907  -1.0650  -1.0619  -0.9511
    -0.9495  -0.9005  -0.9000  -0.8684  -0.8674  -0.7908  -0.7902  -0.7040
    -0.7028  -0.6426  -0.6381  -0.4849  -0.4830   0.5239   0.6218   0.6222
     0.6916   0.6925   0.7387   0.7392   0.9883   0.9887   1.0016   1.0024
     1.0175   1.0178   1.0614   1.0627   1.3041   1.3057   1.5531   1.5546
     1.8264   1.8276   1.8492   1.8501   1.9497   1.9502   1.9875   1.9878
     2.1252   2.1256   2.3003   2.3006   2.3039   2.3050   2.3527   2.3536
     2.3981   2.3992   2.4017   2.4025   2.5124   2.5135   2.6577   2.6584
     2.6765   2.6773   2.7448   2.7450   2.9468   2.9489   2.9589   2.9602
     3.0203   3.0206   3.1336   3.1352   3.2491   3.2491   3.3065   3.3081
     3.3472   3.3485   3.4369   3.4371   3.5329   3.5356   3.5938   3.5964
     3.6579   3.6593   3.7120   3.7140   3.7952   3.8031   3.8171   3.8185
     3.8647   3.8651   3.8904   3.8949   3.9274   3.9281   4.0491   4.0544
     4.0641   4.0642   4.1819   4.1820   4.2435   4.2484   4.2502   4.2508
     4.2811   4.2830   4.2935   4.2962   4.3400   4.3503   4.3612   4.3613
     4.3954   4.3965   4.5259   4.5264   4.5508   4.5567   4.5668   4.5677
     4.6043   4.6047   4.7306   4.7345   4.8961   4.9048   4.9265   4.9278
     4.9726   4.9749   4.9767   4.9789   5.0479   5.0498   5.0530   5.0542
     5.1093   5.1110   5.1859   5.1914   5.2734   5.2737   5.2741   5.2741
     5.3442   5.3446   5.3817   5.3887   5.4753   5.4763   5.4790   5.4847
     5.5030   5.5079   5.5253   5.5267   5.6526   5.6532   5.6643   5.6651
     5.6970   5.6980   5.6988   5.7008   5.7592   5.7615   5.8036   5.8042
     5.8100   5.8107   5.8395   5.8401   5.9051   5.9082   5.9304   5.9316
     5.9693   5.9713   5.9923   5.9961   6.1025   6.1030   6.1035   6.1051
     6.1054   6.1074   6.1343   6.1367   6.1580   6.1584   6.2828   6.2858
     6.2884   6.2903   6.3112   6.3142   6.3547   6.3550   6.3650   6.3656
     6.3714   6.3729   6.4481   6.4484   6.5467   6.5502   6.5503   6.5521
     6.5831   6.5859   6.6577   6.6586   6.7768   6.7777   6.8058   6.8081

     the Fermi energy is     5.1161 ev

!    total energy              =  -12616.46585048 Ry
     total all-electron energy =   -103594.969657 Ry
     estimated scf accuracy    <          7.8E-11 Ry
     smearing contrib. (-TS)   =       0.00922270 Ry
     internal energy E=F+TS    =  -12616.47507318 Ry

     The total energy is F=E-TS. E is the sum of the following terms:
     one-electron contribution =  -66870.98497034 Ry
     hartree contribution      =   33547.09187800 Ry
     xc contribution           =   -1216.01448881 Ry
     ewald contribution        =   25685.79188555 Ry
     DFT-D3 Dispersion         =      -1.07780999 Ry
     one-center paw contrib.   =   -3761.28156759 Ry

     convergence has been achieved in  28 iterations

     negative rho (up, down):  1.530E-04 0.000E+00

     Forces acting on atoms (cartesian axes, Ry/au):

     atom    1 type  1   force =    -0.00013595   -0.00019747    0.00019804
     atom    2 type  1   force =    -0.00010323   -0.00021685    0.00019763
     atom    3 type  1   force =    -0.00003981   -0.00007010    0.00017988
     atom    4 type  1   force =    -0.00008065   -0.00014004   -0.00010929
     atom    5 type  1   force =    -0.00000954    0.00020618   -0.00011410
     atom    6 type  1   force =     0.00018364    0.00009433   -0.00011412
     atom    7 type  2   force =     0.00006520    0.00011320    0.00024646
     atom    8 type  2   force =    -0.00000575   -0.00005867   -0.00011833
     atom    9 type  2   force =    -0.00004791   -0.00003422   -0.00011893
     atom   10 type  1   force =     0.00029275    0.00001598   -0.00016581
     atom   11 type  1   force =    -0.00013304    0.00026092   -0.00016637
     atom   12 type  1   force =    -0.00012121   -0.00021122   -0.00049509
     atom   13 type  1   force =     0.00011724    0.00020228    0.00003576
     atom   14 type  1   force =     0.00000037   -0.00027358    0.00050721
     atom   15 type  1   force =    -0.00023653   -0.00013697    0.00050763
     atom   16 type  2   force =    -0.00006014   -0.00010559    0.00021770
     atom   17 type  2   force =    -0.00004703    0.00022831   -0.00018139
     atom   18 type  2   force =     0.00022137    0.00007332   -0.00018139
     atom   19 type  1   force =     0.00023988    0.00001981    0.00019738
     atom   20 type  1   force =    -0.00027020   -0.00000057    0.00001524
     atom   21 type  1   force =    -0.00013667    0.00019770    0.00019717
     atom   22 type  1   force =    -0.00001030   -0.00020578   -0.00011406
     atom   23 type  1   force =    -0.00017341    0.00011177   -0.00011409
     atom   24 type  1   force =     0.00003034    0.00000050    0.00007022
     atom   25 type  2   force =    -0.00013011   -0.00000010    0.00024635
     atom   26 type  2   force =    -0.00004782    0.00003408   -0.00011856
     atom   27 type  2   force =     0.00000003    0.00000009   -0.00046320
     atom   28 type  1   force =    -0.00015989   -0.00024473   -0.00016600
     atom   29 type  1   force =     0.00008558   -0.00000029   -0.00043469
     atom   30 type  1   force =     0.00029187   -0.00001609   -0.00016646
     atom   31 type  1   force =    -0.00000132    0.00027365    0.00050739
     atom   32 type  1   force =     0.00023708   -0.00013534    0.00050778
     atom   33 type  1   force =    -0.00009194    0.00000011    0.00032597
     atom   34 type  2   force =     0.00012149    0.00000090    0.00021815
     atom   35 type  2   force =     0.00022116   -0.00007329   -0.00018155
     atom   36 type  2   force =    -0.00000028    0.00000044    0.00011341
     atom   37 type  1   force =     0.00013479   -0.00023445    0.00001557
     atom   38 type  1   force =    -0.00010243    0.00021690    0.00019752
     atom   39 type  1   force =     0.00023907   -0.00001940    0.00019797
     atom   40 type  1   force =    -0.00017371   -0.00011160   -0.00011418
     atom   41 type  1   force =    -0.00001581    0.00002622    0.00007012
     atom   42 type  1   force =     0.00018334   -0.00009472   -0.00011404
     atom   43 type  2   force =     0.00006538   -0.00011294    0.00024620
     atom   44 type  2   force =     0.00000008    0.00000005   -0.00046445
     atom   45 type  2   force =     0.00005333   -0.00002446   -0.00011870
     atom   46 type  1   force =    -0.00004307    0.00007327   -0.00043521
     atom   47 type  1   force =    -0.00013173   -0.00026092   -0.00016553
     atom   48 type  1   force =    -0.00016075    0.00024496   -0.00016591
     atom   49 type  1   force =     0.00023670    0.00013605    0.00050707
     atom   50 type  1   force =     0.00004506   -0.00007960    0.00032577
     atom   51 type  1   force =    -0.00023631    0.00013681    0.00050722
     atom   52 type  2   force =    -0.00006125    0.00010489    0.00021802
     atom   53 type  2   force =     0.00000005   -0.00000015    0.00011379
     atom   54 type  2   force =    -0.00017424    0.00015491   -0.00018147
     atom   55 type  1   force =    -0.00004121    0.00006966    0.00017935
     atom   56 type  1   force =     0.00008082    0.00000053    0.00017965
     atom   57 type  1   force =     0.00013490    0.00023404    0.00001501
     atom   58 type  1   force =    -0.00001460   -0.00002669    0.00007006
     atom   59 type  1   force =    -0.00008066    0.00013997   -0.00010959
     atom   60 type  1   force =     0.00016197   -0.00000018   -0.00010982
     atom   61 type  2   force =    -0.00000026   -0.00000011    0.00014454
     atom   62 type  2   force =     0.00005352    0.00002440   -0.00011826
     atom   63 type  2   force =    -0.00000554    0.00005870   -0.00011881
     atom   64 type  1   force =    -0.00012182    0.00021092   -0.00049525
     atom   65 type  1   force =     0.00024315    0.00000055   -0.00049548
     atom   66 type  1   force =    -0.00004198   -0.00007340   -0.00043483
     atom   67 type  1   force =     0.00004666    0.00008015    0.00032640
     atom   68 type  1   force =     0.00011690   -0.00020364    0.00003576
     atom   69 type  1   force =    -0.00023443    0.00000005    0.00003559
     atom   70 type  2   force =    -0.00000009   -0.00000017   -0.00041560
     atom   71 type  2   force =    -0.00017419   -0.00015471   -0.00018165
     atom   72 type  2   force =    -0.00004686   -0.00022860   -0.00018147
     atom   73 type  3   force =    -0.00000812    0.00001415    0.00039638
     atom   74 type  4   force =     0.00000030   -0.00000057    0.00044638
     atom   75 type  4   force =     0.00011256   -0.00019500   -0.00025485
     atom   76 type  4   force =     0.00010580    0.00018208   -0.00025959
     atom   77 type  4   force =    -0.00021057   -0.00000061   -0.00025963

     Total force =     0.002909     Total SCF correction =     0.000043
     Energy error            =      2.1E-05 Ry
     Gradient error          =      5.1E-04 Ry/Bohr

     bfgs converged in  32 scf cycles and  31 bfgs steps
     (criteria: energy <  1.0E-04 Ry, force <  1.0E-03 Ry/Bohr)

     End of BFGS Geometry Optimization

     Final energy             =  -12616.4658504787 Ry

     File tmp/CH4-H13_Rot30_hollow_/CH4-H13_Rot30_hollow_.bfgs deleted, as requested
Begin final coordinates

ATOMIC_POSITIONS (angstrom)
Cr              -1.5956062184        2.7660009693        8.1732415888
Cr               3.1932329878        0.0011655001        8.1732426685
Cr               0.7797420498        1.3505521131        8.1735227113
Cr               1.6302010849        2.8235912946        6.0448674070
Cr              -0.7457696775        1.2911368317        6.0455692745
Cr               1.4910416139       -0.0002862323        6.0455698736
N               -0.0001919785       -0.0003322964        5.0023467471
N                2.3758662794        1.3722779274        7.0313338056
N                0.0004954066        2.7436977209        7.0313358118
Cr              -1.6483226152        2.8512509642       12.4480806277
Cr               3.2934207270       -0.0018652708       12.4480802739
Cr               0.7280792018        1.2610691597       12.4478806193
Cr               1.5941360912        2.7611226604       10.3715260708
Cr              -0.7809780862        1.3533504853       10.3674325439
Cr               1.5625261384        0.0003278907       10.3674324234
N                0.0001468190        0.0002551616        9.2570608326
N                2.3754003741        1.3701025628       11.4911759424
N               -0.0011543176        2.7422065137       11.4911751849
Cr              -3.9733096064        6.8796407305        8.1732433467
Cr               0.8185440965        4.1148064942        8.1749080089
Cr              -1.5956050388        5.4636105094        8.1732443275
Cr              -0.7457685089        6.9384735283        6.0455699454
Cr              -3.1209559770        5.4062288070        6.0455692479
Cr              -0.8837281156        4.1148050331        6.0438601492
N               -2.3752991806        4.1148059649        5.0023465481
N                0.0004952022        5.4859136323        7.0313356872
N               -2.3756841532        6.8580089291        7.0329665818
Cr              -4.0207738370        6.9679166517       12.4480787158
Cr               0.9111287642        4.1148063932       12.4486074956
Cr              -1.6483186205        5.3783636620       12.4480823913
Cr              -0.7809747732        6.8762618395       10.3674320404
Cr              -3.1572292186        5.4678240632       10.3674338905
Cr              -0.8133344237        4.1148057459       10.3692849984
N               -2.3759774049        4.1148038205        9.2570580370
N               -0.0011526271        5.4874050076       11.4911748042
N               -2.3756814482        6.8580075964       11.4874904873
Cr               3.1542574848        2.7662826776        8.1749056809
Cr               7.9446017068       -0.0011640879        8.1732436638
Cr               5.5294308293        1.3499703966        8.1732411342
Cr               6.3817843400        2.8233820570        6.0455684470
Cr               4.0053932758        1.2920713200        6.0438597062
Cr               6.2424125330        0.0002879920        6.0455686668
N                4.7511782381        0.0003325628        5.0023470924
N                7.1270553060        1.3716017276        7.0329683019
N                4.7506966000        2.7433856955        7.0313330406
Cr               3.1079635690        2.8464657388       12.4486075176
Cr               8.0447859180        0.0018659938       12.4480788132
Cr               5.4819655026        1.2616926393       12.4480820958
Cr               6.3455108290        2.7617860179       10.3674342999
Cr               3.9701991393        1.3530338958       10.3692879489
Cr               6.3138941795       -0.0003265401       10.3674340035
N                4.7515188331       -0.0002522068        9.2570584749
N                7.1270563439        1.3716034613       11.4874909943
N                4.7528135268        2.7427029478       11.4911786190
Cr               0.7797444319        6.8790591188        8.1735240970
Cr               5.5675726481        4.1148049124        8.1735219205
Cr               3.1542578568        5.4633298178        8.1749079015
Cr               4.0053911356        6.9375403881        6.0438598577
Cr               1.6302014434        5.4060207620        6.0448685081
Cr               3.8666509871        4.1148062059        6.0448681376
N                2.3756850077        4.1148065313        5.0017953890
N                4.7506959556        5.4862262146        7.0313330763
N                2.3758659276        6.8573338660        7.0313353679
Cr               0.7280780504        6.9685434586       12.4478835702
Cr               5.6709062460        4.1148040895       12.4478848190
Cr               3.1079597526        5.3831424678       12.4486064762
Cr               3.9701957256        6.8765742176       10.3692855196
Cr               1.5941368452        5.4684910472       10.3715242520
Cr               3.9387864902        4.1148049261       10.3715259149
N                2.3756869290        4.1148057773        9.2614045725
N                4.7528122950        5.4869066336       11.4911792299
N                2.3753991043        6.8595085067       11.4911770414
C                2.3756614506        4.1148035189       16.4046983641
H                2.3757232361        4.1147041652       15.3046621256
H                2.8928644024        3.2189795832       16.7665461342
H                2.8928665452        5.0107108484       16.7663757035
H                1.3411783691        4.1148432686       16.7663699306
End final coordinates



     Writing all to output data dir tmp/CH4-H13_Rot30_hollow_/CH4-H13_Rot30_hollow_.save/ :
     XML data file, charge density, pseudopotentials, collected wavefunctions
 
     init_run     :     18.51s CPU     19.38s WALL (       1 calls)
     electrons    :  51465.89s CPU  52882.53s WALL (      32 calls)
     update_pot   :     38.83s CPU     40.63s WALL (      31 calls)
     forces       :    324.41s CPU    336.49s WALL (      32 calls)
     force_dftd3  :      7.01s CPU      7.39s WALL (      32 calls)

     Called by init_run:
     wfcinit      :     14.21s CPU     14.65s WALL (       1 calls)
     potinit      :      1.02s CPU      1.17s WALL (       1 calls)
     hinit0       :      0.34s CPU      0.44s WALL (       1 calls)

     Called by electrons:
     c_bands      :  42505.21s CPU  43423.77s WALL (    1276 calls)
     sum_band     :   7065.24s CPU   7325.56s WALL (    1276 calls)
     v_of_rho     :    724.37s CPU    778.92s WALL (    1297 calls)
     newd         :    566.29s CPU    729.13s WALL (    1297 calls)
     PAW_pot      :    472.25s CPU    478.27s WALL (    1328 calls)
     mix_rho      :    102.58s CPU    110.56s WALL (    1276 calls)
     energy_dftd3 :      3.75s CPU      3.77s WALL (      32 calls)

     Called by c_bands:
     init_us_2    :    733.38s CPU    743.64s WALL (    7848 calls)
     cegterg      :  39630.13s CPU  40522.46s WALL (    3828 calls)

     Called by *egterg:
     cdiaghg      :   1441.83s CPU   1458.81s WALL (   14136 calls)
     h_psi        :  19345.91s CPU  19737.14s WALL (   14265 calls)
     s_psi        :   4529.53s CPU   4577.51s WALL (   14265 calls)
     g_psi        :     87.76s CPU     89.01s WALL (   10434 calls)

     Called by h_psi:
     h_psi:calbec :   4579.81s CPU   4630.04s WALL (   14265 calls)
     vloc_psi     :  10071.35s CPU  10254.19s WALL (   14265 calls)
                                        0.00s GPU  (   14265 calls)
     add_vuspsi   :   4542.77s CPU   4592.69s WALL (   14265 calls)

     General routines
     calbec       :   6939.55s CPU   7014.00s WALL (   18570 calls)
     fft          :    571.95s CPU    621.09s WALL (   17191 calls)
     ffts         :      7.76s CPU      8.83s WALL (    2573 calls)
     fftw         :   9870.26s CPU  10040.37s WALL ( 9672026 calls)
     interpolate  :     41.27s CPU     45.97s WALL (    1297 calls)
 
     Parallel routines
 
     PWSCF        :     14h25m CPU     14h49m WALL

 
   This run was terminated on:  10:30:51   9Jun2026            

=------------------------------------------------------------------------------=
   JOB DONE.
=------------------------------------------------------------------------------=
