
     Program PWSCF v.7.5 starts on  1Jun2026 at 21:42:56 

     This program is part of the open-source Quantum ESPRESSO suite
     for quantum simulation of materials; please cite
         "P. Giannozzi et al., J. Phys.:Condens. Matter 21 395502 (2009);
         "P. Giannozzi et al., J. Phys.:Condens. Matter 29 465901 (2017);
         "P. Giannozzi et al., J. Chem. Phys. 152 154105 (2020);
          URL http://www.quantum-espresso.org", 
     in publications or presentations arising from this work. More details at
     http://www.quantum-espresso.org/quote

     Parallel version (MPI & OpenMP), running on      64 processor cores
     Number of MPI processes:                64
     Threads/MPI process:                     1

     MPI processes distributed on     1 nodes
     348876 MiB available memory on the printing compute node when the environment starts
 
     Reading input from generated_inputs/adsorcion/pw-CH4-H13_Rot0_ontop_.in
Warning: card &CELL ignored

     Current dimensions of program PWSCF are:
     Max number of different atomic species (ntypx) = 10
     Max number of k-points (npk) =  40000
     Max angular momentum in pseudopotentials (lmaxx) =  4
     file Cr.pbe-spn-kjpaw_psl.1.0.0.UPF: wavefunction(s)  3S 3P 3D renormalized
     file N.pbe-n-kjpaw_psl.1.0.0.UPF: wavefunction(s)  2S renormalized
     file C.pbe-n-kjpaw_psl.1.0.0.UPF: wavefunction(s)  2S 2P renormalized
     file H.pbe-kjpaw_psl.1.0.0.UPF: wavefunction(s)  1S renormalized
 
     K-points division:     npool     =       4
     R & G space division:  proc/nbgrp/npool/nimage =      16
     Subspace diagonalization in iterative solution of the eigenvalue problem:
     one sub-group per band group will be used
     scalapack distributed-memory algorithm (size of sub-group:  4*  4 procs)

 
     Parallelization info
     --------------------
     sticks:   dense  smooth     PW     G-vecs:    dense   smooth      PW
     Min        1166     388    102               281408    54158    7274
     Max        1167     389    103               281417    54165    7281
     Sum       18661    6217   1639              4502593   866593  116429
 
     Using Slab Decomposition
 


     bravais-lattice index     =            0
     lattice parameter (alat)  =      17.9576  a.u.
     unit-cell volume          =   10952.5767 (a.u.)^3
     number of atoms/cell      =           77
     number of atomic types    =            4
     number of electrons       =       800.00
     number of Kohn-Sham states=          480
     kinetic-energy cutoff     =      70.0000  Ry
     charge density cutoff     =     840.0000  Ry
     scf convergence threshold =      1.0E-08
     mixing beta               =       0.2000
     number of iterations used =            8  plain     mixing
     energy convergence thresh.=      1.0E-04
     force convergence thresh. =      1.0E-03
     Exchange-correlation= SLA  PW   PBX  PBC
                           (   1   4   3   4   0   0   0)
     nstep                     =          200


     celldm(1)=  17.957575  celldm(2)=   0.000000  celldm(3)=   0.000000
     celldm(4)=   0.000000  celldm(5)=   0.000000  celldm(6)=   0.000000

     crystal axes: (cart. coord. in units of alat)
               a(1) = (   1.000000   0.000000   0.000000 )  
               a(2) = (  -0.500000   0.866025   0.000000 )  
               a(3) = (   0.000000   0.000000   2.183951 )  

     reciprocal axes: (cart. coord. in units 2 pi/alat)
               b(1) = (  1.000000  0.577351  0.000000 )  
               b(2) = (  0.000000  1.154701  0.000000 )  
               b(3) = (  0.000000  0.000000  0.457886 )  


     PseudoPot. # 1 for Cr read from file:
     pseudo/Cr.pbe-spn-kjpaw_psl.1.0.0.UPF
     MD5 check sum: 198f1a2427a48552563eee314eba32ba
     Pseudo is Projector augmented-wave + core cor, Zval = 14.0
     Generated using &quot;atomic&quot; code by A. Dal Corso  v.6.3
     Shape of augmentation charge: PSQ
     Using radial grid of 1183 points,  6 beta functions with: 
                l(1) =   0
                l(2) =   0
                l(3) =   1
                l(4) =   1
                l(5) =   2
                l(6) =   2
     Q(r) pseudized with 0 coefficients 


     PseudoPot. # 2 for N  read from file:
     pseudo/N.pbe-n-kjpaw_psl.1.0.0.UPF
     MD5 check sum: 14c48229446f9f2d411169a3abcbc3fa
     Pseudo is Projector augmented-wave + core cor, Zval =  5.0
     Generated using &quot;atomic&quot; code by A. Dal Corso  v.6.3
     Shape of augmentation charge: PSQ
     Using radial grid of 1085 points,  4 beta functions with: 
                l(1) =   0
                l(2) =   0
                l(3) =   1
                l(4) =   1
     Q(r) pseudized with 0 coefficients 


     PseudoPot. # 3 for C  read from file:
     pseudo/C.pbe-n-kjpaw_psl.1.0.0.UPF
     MD5 check sum: 5f16ad9a65e90284d1d834d4ab3b0f7d
     Pseudo is Projector augmented-wave + core cor, Zval =  4.0
     Generated using &quot;atomic&quot; code by A. Dal Corso  v.6.3
     Shape of augmentation charge: PSQ
     Using radial grid of 1073 points,  4 beta functions with: 
                l(1) =   0
                l(2) =   0
                l(3) =   1
                l(4) =   1
     Q(r) pseudized with 0 coefficients 


     PseudoPot. # 4 for H  read from file:
     pseudo/H.pbe-kjpaw_psl.1.0.0.UPF
     MD5 check sum: d81a744832360e4a8af0b0b5b123bc2a
     Pseudo is Projector augmented-wave, Zval =  1.0
     Generated using &quot;atomic&quot; code by A. Dal Corso  v.6.3MaX
     Shape of augmentation charge: PSQ
     Using radial grid of  929 points,  2 beta functions with: 
                l(1) =   0
                l(2) =   0
     Q(r) pseudized with 0 coefficients 


     atomic species   valence    mass     pseudopotential
     Cr               14.00    51.99610     Cr( 1.00)
     N                 5.00    14.00670     N ( 1.00)
     C                 4.00    12.01100     C ( 1.00)
     H                 1.00     1.00800     H ( 1.00)

     No symmetry found



   Cartesian axes

     site n.     atom                  positions (alat units)
         1        Cr     tau(   1) = (  -0.1681591   0.2912601   0.8673998  )
         2        Cr     tau(   2) = (   0.3363182   0.0000000   0.8673998  )
         3        Cr     tau(   3) = (   0.0818405   0.1417518   0.8673993  )
         4        Cr     tau(   4) = (   0.1684970   0.2918454   0.6425759  )
         5        Cr     tau(   5) = (  -0.0815030   0.1411673   0.6425759  )
         6        Cr     tau(   6) = (   0.1630059   0.0000000   0.6425759  )
         7        N      tau(   7) = (   0.0000000   0.0000000   0.5261641  )
         8        N      tau(   8) = (   0.2500000   0.1443376   0.7485579  )
         9        N      tau(   9) = (   0.0000000   0.2886752   0.7485579  )
        10        Cr     tau(  10) = (  -0.1730001   0.2996450   1.3148727  )
        11        Cr     tau(  11) = (   0.3460003   0.0000000   1.3148727  )
        12        Cr     tau(  12) = (   0.0770029   0.1333729   1.3148745  )
        13        Cr     tau(  13) = (   0.1677092   0.2904808   1.0968932  )
        14        Cr     tau(  14) = (  -0.0822901   0.1425306   1.0968938  )
        15        Cr     tau(  15) = (   0.1645802   0.0000000   1.0968938  )
        16        N      tau(  16) = (   0.0000000   0.0000000   0.9808490  )
        17        N      tau(  17) = (   0.2500004   0.1443372   1.2145625  )
        18        N      tau(  18) = (  -0.0000005   0.2886753   1.2145625  )
        19        Cr     tau(  19) = (  -0.4181595   0.7242736   0.8673993  )
        20        Cr     tau(  20) = (   0.0863184   0.4330126   0.8674001  )
        21        Cr     tau(  21) = (  -0.1681593   0.5747652   0.8674001  )
        22        Cr     tau(  22) = (  -0.0815030   0.7248581   0.6425759  )
        23        Cr     tau(  23) = (  -0.3315030   0.5741800   0.6425759  )
        24        Cr     tau(  24) = (  -0.0869941   0.4330127   0.6425759  )
        25        N      tau(  25) = (  -0.2500000   0.4330127   0.5261641  )
        26        N      tau(  26) = (   0.0000000   0.5773503   0.7485581  )
        27        N      tau(  27) = (  -0.2500000   0.7216878   0.7485579  )
        28        Cr     tau(  28) = (  -0.4229971   0.7326525   1.3148745  )
        29        Cr     tau(  29) = (   0.0959968   0.4330121   1.3148749  )
        30        Cr     tau(  30) = (  -0.1729989   0.5663837   1.3148749  )
        31        Cr     tau(  31) = (  -0.0822898   0.7234940   1.0968932  )
        32        Cr     tau(  32) = (  -0.3322908   0.5755446   1.0968932  )
        33        Cr     tau(  33) = (  -0.0854193   0.4330133   1.0968932  )
        34        N      tau(  34) = (  -0.2500001   0.4330128   0.9808490  )
        35        N      tau(  35) = (   0.0000000   0.5773503   1.2145635  )
        36        N      tau(  36) = (  -0.2499996   0.7216882   1.2145625  )
        37        Cr     tau(  37) = (   0.3318407   0.2912602   0.8674001  )
        38        Cr     tau(  38) = (   0.8363191   0.0000000   0.8673993  )
        39        Cr     tau(  39) = (   0.5818409   0.1417524   0.8674001  )
        40        Cr     tau(  40) = (   0.6684970   0.2918454   0.6425759  )
        41        Cr     tau(  41) = (   0.4184970   0.1411673   0.6425759  )
        42        Cr     tau(  42) = (   0.6630059   0.0000000   0.6425759  )
        43        N      tau(  43) = (   0.5000000   0.0000000   0.5261641  )
        44        N      tau(  44) = (   0.7500000   0.1443376   0.7485579  )
        45        N      tau(  45) = (   0.5000000   0.2886751   0.7485581  )
        46        Cr     tau(  46) = (   0.3270011   0.2996417   1.3148749  )
        47        Cr     tau(  47) = (   0.8459942   0.0000000   1.3148745  )
        48        Cr     tau(  48) = (   0.5770021   0.1333704   1.3148749  )
        49        Cr     tau(  49) = (   0.6677091   0.2904819   1.0968932  )
        50        Cr     tau(  50) = (   0.4177102   0.1425314   1.0968932  )
        51        Cr     tau(  51) = (   0.6645817   0.0000000   1.0968932  )
        52        N      tau(  52) = (   0.5000001   0.0000000   0.9808490  )
        53        N      tau(  53) = (   0.7500001   0.1443381   1.2145625  )
        54        N      tau(  54) = (   0.5000000   0.2886751   1.2145635  )
        55        Cr     tau(  55) = (   0.0818409   0.7242730   0.8674001  )
        56        Cr     tau(  56) = (   0.5863184   0.4330128   0.8674001  )
        57        Cr     tau(  57) = (   0.3318409   0.5747653   0.8673998  )
        58        Cr     tau(  58) = (   0.4184970   0.7248581   0.6425759  )
        59        Cr     tau(  59) = (   0.1684970   0.5741800   0.6425759  )
        60        Cr     tau(  60) = (   0.4130059   0.4330127   0.6425759  )
        61        N      tau(  61) = (   0.2500000   0.4330127   0.5261641  )
        62        N      tau(  62) = (   0.5000000   0.5773502   0.7485579  )
        63        N      tau(  63) = (   0.2500000   0.7216878   0.7485579  )
        64        Cr     tau(  64) = (   0.0770021   0.7326550   1.3148749  )
        65        Cr     tau(  65) = (   0.5959968   0.4330133   1.3148749  )
        66        Cr     tau(  66) = (   0.3269999   0.5663804   1.3148727  )
        67        Cr     tau(  67) = (   0.4177099   0.7234948   1.0968938  )
        68        Cr     tau(  68) = (   0.1677091   0.5755435   1.0968932  )
        69        Cr     tau(  69) = (   0.4145807   0.4330121   1.0968932  )
        70        N      tau(  70) = (   0.2499999   0.4330126   0.9808490  )
        71        N      tau(  71) = (   0.4999995   0.5773501   1.2145625  )
        72        N      tau(  72) = (   0.2500001   0.7216873   1.2145625  )
        73        C      tau(  73) = (   0.0959968   0.4330121   1.6400443  )
        74        H      tau(  74) = (   0.0959968   0.4329933   1.5253427  )
        75        H      tau(  75) = (   0.0959968   0.3248766   1.6782959  )
        76        H      tau(  76) = (   0.1896503   0.4870892   1.6782693  )
        77        H      tau(  77) = (   0.0023433   0.4870892   1.6782693  )

     --------------------------------------------
     DFT-D3 Dispersion Correction (3-body terms):
     --------------------------------------------
       Reference C6 values for interpolation: 

         atom   Coordination number   C6
         H          0.912             6.05
         H          0.000            15.18
         C          0.000            98.23
         C          0.987            86.49
         C          1.998            58.72
         C          2.999            51.56
         C          3.984            36.41
         N          0.000            50.54
         N          0.994            44.25
         N          2.014            39.35
         N          2.990            31.16
         Cr         0.000          1381.48
         Cr         1.827           571.38
         Cr        10.619           306.69

       Values used:

         atom   Coordination number  R0_AB[au]  C6      C8
         Cr        12.627            3.252    306.69  28303.74
         Cr        12.627            3.252    306.69  28303.74
         Cr        12.627            3.252    306.69  28303.74
         Cr        10.143            3.252    306.69  28303.74
         Cr        10.143            3.252    306.69  28303.74
         Cr        10.143            3.252    306.69  28303.74
         N          3.022            2.478     31.29    690.36
         N          6.023            2.478     31.16    687.49
         N          6.023            2.478     31.16    687.49
         Cr         9.073            3.252    306.69  28303.74
         Cr         9.071            3.252    306.69  28303.74
         Cr         9.073            3.252    306.69  28303.74
         Cr        12.748            3.252    306.69  28303.74
         Cr        12.748            3.252    306.69  28303.74
         Cr        12.748            3.252    306.69  28303.74
         N          6.047            2.478     31.16    687.49
         N          6.032            2.478     31.16    687.49
         N          6.032            2.478     31.16    687.49
         Cr        12.627            3.252    306.69  28303.74
         Cr        12.627            3.252    306.69  28303.74
         Cr        12.627            3.252    306.69  28303.74
         Cr        10.143            3.252    306.69  28303.74
         Cr        10.143            3.252    306.69  28303.74
         Cr        10.143            3.252    306.69  28303.74
         N          3.022            2.478     31.29    690.36
         N          6.023            2.478     31.16    687.49
         N          6.023            2.478     31.16    687.49
         Cr         9.071            3.252    306.69  28303.74
         Cr         9.409            3.252    306.69  28303.74
         Cr         9.073            3.252    306.69  28303.74
         Cr        12.748            3.252    306.69  28303.74
         Cr        12.748            3.252    306.69  28303.74
         Cr        12.748            3.252    306.69  28303.74
         N          6.047            2.478     31.16    687.49
         N          6.032            2.478     31.16    687.49
         N          6.032            2.478     31.16    687.49
         Cr        12.627            3.252    306.69  28303.74
         Cr        12.627            3.252    306.69  28303.74
         Cr        12.627            3.252    306.69  28303.74
         Cr        10.143            3.252    306.69  28303.74
         Cr        10.143            3.252    306.69  28303.74
         Cr        10.143            3.252    306.69  28303.74
         N          3.022            2.478     31.29    690.36
         N          6.023            2.478     31.16    687.49
         N          6.023            2.478     31.16    687.49
         Cr         9.074            3.252    306.69  28303.74
         Cr         9.071            3.252    306.69  28303.74
         Cr         9.071            3.252    306.69  28303.74
         Cr        12.748            3.252    306.69  28303.74
         Cr        12.748            3.252    306.69  28303.74
         Cr        12.748            3.252    306.69  28303.74
         N          6.047            2.478     31.16    687.49
         N          6.032            2.478     31.16    687.49
         N          6.032            2.478     31.16    687.49
         Cr        12.627            3.252    306.69  28303.74
         Cr        12.627            3.252    306.69  28303.74
         Cr        12.627            3.252    306.69  28303.74
         Cr        10.143            3.252    306.69  28303.74
         Cr        10.143            3.252    306.69  28303.74
         Cr        10.143            3.252    306.69  28303.74
         N          3.022            2.478     31.29    690.36
         N          6.023            2.478     31.16    687.49
         N          6.023            2.478     31.16    687.49
         Cr         9.073            3.252    306.69  28303.74
         Cr         9.071            3.252    306.69  28303.74
         Cr         9.074            3.252    306.69  28303.74
         Cr        12.748            3.252    306.69  28303.74
         Cr        12.748            3.252    306.69  28303.74
         Cr        12.748            3.252    306.69  28303.74
         N          6.047            2.478     31.16    687.49
         N          6.032            2.478     31.16    687.49
         N          6.032            2.478     31.16    687.49
         C          4.025            2.750     36.61   1058.79
         H          1.301            2.062      6.07     73.35
         H          0.997            2.062      6.18     74.76
         H          0.997            2.062      6.18     74.75
         H          0.997            2.062      6.18     74.76

         Molecular C6 ( Ry / a.u.^6 ) =    974466.15


     number of k points=    10  Methfessel-Paxton smearing, width (Ry)=  0.0200
                       cart. coord. in units 2pi/alat
        k(    1) = (   0.0000000   0.0000000   0.0000000), wk =   0.1250000
        k(    2) = (   0.0000000   0.2886753   0.0000000), wk =   0.2500000
        k(    3) = (   0.0000000  -0.5773505   0.0000000), wk =   0.1250000
        k(    4) = (   0.2500000   0.4330129   0.0000000), wk =   0.2500000
        k(    5) = (  -0.2500000   0.1443376   0.0000000), wk =   0.2500000
        k(    6) = (   0.2500000   0.1443376   0.0000000), wk =   0.2500000
        k(    7) = (   0.5000000  -0.2886753   0.0000000), wk =   0.1250000
        k(    8) = (  -0.5000000  -0.2886753   0.0000000), wk =   0.1250000
        k(    9) = (  -0.2500000   0.4330129   0.0000000), wk =   0.2500000
        k(   10) = (   0.5000000  -0.0000000   0.0000000), wk =   0.2500000

     Dense  grid:  4502593 G-vectors     FFT dimensions: ( 180, 180, 375)

     Smooth grid:   866593 G-vectors     FFT dimensions: (  96,  96, 216)

     Estimated max dynamical RAM per process >     867.27 MB

     Estimated total dynamical RAM >      50.98 GB

     Initial potential from superposition of free atoms

     starting charge     799.9627, renormalised to     800.0000

     negative rho (up, down):  3.310E-04 0.000E+00
     Starting wfcs are  584 randomized atomic wfcs
     Checking if some PAW data can be deallocated... 

     total cpu time spent up to now is       19.8 secs

     Self-consistent Calculation

     iteration #  1     ecut=    70.00 Ry     beta= 0.20
     Davidson diagonalization with overlap
     ethr =  1.00E-02,  avg # of iterations =  2.7

     negative rho (up, down):  1.300E-04 0.000E+00

     total cpu time spent up to now is       65.9 secs

     total energy              =  -12610.59955812 Ry
     estimated scf accuracy    <      29.37230413 Ry

     iteration #  2     ecut=    70.00 Ry     beta= 0.20
     Davidson diagonalization with overlap
     ethr =  3.67E-03,  avg # of iterations =  6.5

     negative rho (up, down):  4.056E-04 0.000E+00

     total cpu time spent up to now is      122.8 secs

     total energy              =  -12600.10490478 Ry
     estimated scf accuracy    <     680.23503989 Ry

     iteration #  3     ecut=    70.00 Ry     beta= 0.20
     Davidson diagonalization with overlap
     ethr =  3.67E-03,  avg # of iterations =  3.0

     negative rho (up, down):  5.972E-04 0.000E+00

     total cpu time spent up to now is      164.8 secs

     total energy              =  -12608.78207575 Ry
     estimated scf accuracy    <     494.92239470 Ry

     iteration #  4     ecut=    70.00 Ry     beta= 0.20
     Davidson diagonalization with overlap
     ethr =  3.67E-03,  avg # of iterations =  1.9

     negative rho (up, down):  2.795E-04 0.000E+00

     total cpu time spent up to now is      205.0 secs

     total energy              =  -12614.91798561 Ry
     estimated scf accuracy    <      84.11847684 Ry

     iteration #  5     ecut=    70.00 Ry     beta= 0.20
     Davidson diagonalization with overlap
     ethr =  3.67E-03,  avg # of iterations =  1.5

     negative rho (up, down):  3.538E-04 0.000E+00

     total cpu time spent up to now is      244.2 secs

     total energy              =  -12615.62212560 Ry
     estimated scf accuracy    <      14.38898737 Ry

     iteration #  6     ecut=    70.00 Ry     beta= 0.20
     Davidson diagonalization with overlap
     ethr =  1.80E-03,  avg # of iterations =  2.0

     negative rho (up, down):  4.133E-04 0.000E+00

     total cpu time spent up to now is      284.6 secs

     total energy              =  -12616.19444955 Ry
     estimated scf accuracy    <       3.24408983 Ry

     iteration #  7     ecut=    70.00 Ry     beta= 0.20
     Davidson diagonalization with overlap
     ethr =  4.06E-04,  avg # of iterations = 12.5

     negative rho (up, down):  4.175E-04 0.000E+00

     total cpu time spent up to now is      336.4 secs

     total energy              =  -12616.35730919 Ry
     estimated scf accuracy    <       2.67709309 Ry

     iteration #  8     ecut=    70.00 Ry     beta= 0.20
     Davidson diagonalization with overlap
     ethr =  3.35E-04,  avg # of iterations =  1.9

     negative rho (up, down):  4.390E-04 0.000E+00

     total cpu time spent up to now is      376.7 secs

     total energy              =  -12616.38518180 Ry
     estimated scf accuracy    <       0.83189950 Ry

     iteration #  9     ecut=    70.00 Ry     beta= 0.20
     Davidson diagonalization with overlap
     ethr =  1.04E-04,  avg # of iterations =  3.5

     negative rho (up, down):  3.685E-04 0.000E+00

     total cpu time spent up to now is      418.2 secs

     total energy              =  -12616.37597582 Ry
     estimated scf accuracy    <       0.79541289 Ry

     iteration # 10     ecut=    70.00 Ry     beta= 0.20
     Davidson diagonalization with overlap
     ethr =  9.94E-05,  avg # of iterations =  1.1

     negative rho (up, down):  3.333E-04 0.000E+00

     total cpu time spent up to now is      454.8 secs

     total energy              =  -12616.37308371 Ry
     estimated scf accuracy    <       0.60976816 Ry

     iteration # 11     ecut=    70.00 Ry     beta= 0.20
     Davidson diagonalization with overlap
     ethr =  7.62E-05,  avg # of iterations =  2.0

     negative rho (up, down):  3.570E-04 0.000E+00

     total cpu time spent up to now is      495.0 secs

     total energy              =  -12616.38720729 Ry
     estimated scf accuracy    <       0.23329140 Ry

     iteration # 12     ecut=    70.00 Ry     beta= 0.20
     Davidson diagonalization with overlap
     ethr =  2.92E-05,  avg # of iterations = 15.5

     negative rho (up, down):  2.646E-04 0.000E+00

     total cpu time spent up to now is      547.0 secs

     total energy              =  -12616.38245440 Ry
     estimated scf accuracy    <       0.49579589 Ry

     iteration # 13     ecut=    70.00 Ry     beta= 0.20
     Davidson diagonalization with overlap
     ethr =  2.92E-05,  avg # of iterations =  2.0

     negative rho (up, down):  2.312E-04 0.000E+00

     total cpu time spent up to now is      585.3 secs

     total energy              =  -12616.38947028 Ry
     estimated scf accuracy    <       0.13900961 Ry

     iteration # 14     ecut=    70.00 Ry     beta= 0.20
     Davidson diagonalization with overlap
     ethr =  1.74E-05,  avg # of iterations =  2.7

     negative rho (up, down):  2.014E-04 0.000E+00

     total cpu time spent up to now is      626.2 secs

     total energy              =  -12616.38992660 Ry
     estimated scf accuracy    <       0.09093360 Ry

     iteration # 15     ecut=    70.00 Ry     beta= 0.20
     Davidson diagonalization with overlap
     ethr =  1.14E-05,  avg # of iterations =  4.4

     negative rho (up, down):  1.839E-04 0.000E+00

     total cpu time spent up to now is      669.6 secs

     total energy              =  -12616.38977222 Ry
     estimated scf accuracy    <       0.15788085 Ry

     iteration # 16     ecut=    70.00 Ry     beta= 0.20
     Davidson diagonalization with overlap
     ethr =  1.14E-05,  avg # of iterations =  1.3

     negative rho (up, down):  1.821E-04 0.000E+00

     total cpu time spent up to now is      707.6 secs

     total energy              =  -12616.39069400 Ry
     estimated scf accuracy    <       0.14181445 Ry

     iteration # 17     ecut=    70.00 Ry     beta= 0.20
     Davidson diagonalization with overlap
     ethr =  1.14E-05,  avg # of iterations =  1.4

     negative rho (up, down):  1.857E-04 0.000E+00

     total cpu time spent up to now is      746.4 secs

     total energy              =  -12616.39229954 Ry
     estimated scf accuracy    <       0.02255820 Ry

     iteration # 18     ecut=    70.00 Ry     beta= 0.20
     Davidson diagonalization with overlap
     c_bands:  3 eigenvalues not converged
     ethr =  2.82E-06,  avg # of iterations = 13.7

     negative rho (up, down):  1.861E-04 0.000E+00

     total cpu time spent up to now is      801.7 secs

     total energy              =  -12616.39275355 Ry
     estimated scf accuracy    <       0.04513684 Ry

     iteration # 19     ecut=    70.00 Ry     beta= 0.20
     Davidson diagonalization with overlap
     ethr =  2.82E-06,  avg # of iterations =  4.3

     negative rho (up, down):  1.885E-04 0.000E+00

     total cpu time spent up to now is      844.3 secs

     total energy              =  -12616.39366255 Ry
     estimated scf accuracy    <       0.00712087 Ry

     iteration # 20     ecut=    70.00 Ry     beta= 0.20
     Davidson diagonalization with overlap
     ethr =  8.90E-07,  avg # of iterations =  3.8

     negative rho (up, down):  1.908E-04 0.000E+00

     total cpu time spent up to now is      887.1 secs

     total energy              =  -12616.39384229 Ry
     estimated scf accuracy    <       0.00327017 Ry

     iteration # 21     ecut=    70.00 Ry     beta= 0.20
     Davidson diagonalization with overlap
     ethr =  4.09E-07,  avg # of iterations =  3.5

     negative rho (up, down):  1.949E-04 0.000E+00

     total cpu time spent up to now is      929.3 secs

     total energy              =  -12616.39392472 Ry
     estimated scf accuracy    <       0.00533958 Ry

     iteration # 22     ecut=    70.00 Ry     beta= 0.20
     Davidson diagonalization with overlap
     ethr =  4.09E-07,  avg # of iterations =  1.2

     negative rho (up, down):  1.997E-04 0.000E+00

     total cpu time spent up to now is      966.7 secs

     total energy              =  -12616.39405944 Ry
     estimated scf accuracy    <       0.00330349 Ry

     iteration # 23     ecut=    70.00 Ry     beta= 0.20
     Davidson diagonalization with overlap
     ethr =  4.09E-07,  avg # of iterations =  1.0

     negative rho (up, down):  2.022E-04 0.000E+00

     total cpu time spent up to now is     1002.1 secs

     total energy              =  -12616.39416509 Ry
     estimated scf accuracy    <       0.00116714 Ry

     iteration # 24     ecut=    70.00 Ry     beta= 0.20
     Davidson diagonalization with overlap
     ethr =  1.46E-07,  avg # of iterations =  2.0

     negative rho (up, down):  2.021E-04 0.000E+00

     total cpu time spent up to now is     1042.4 secs

     total energy              =  -12616.39420369 Ry
     estimated scf accuracy    <       0.00067162 Ry

     iteration # 25     ecut=    70.00 Ry     beta= 0.20
     Davidson diagonalization with overlap
     ethr =  8.40E-08,  avg # of iterations =  2.0

     negative rho (up, down):  2.025E-04 0.000E+00

     total cpu time spent up to now is     1082.7 secs

     total energy              =  -12616.39421880 Ry
     estimated scf accuracy    <       0.00055850 Ry

     iteration # 26     ecut=    70.00 Ry     beta= 0.20
     Davidson diagonalization with overlap
     ethr =  6.98E-08,  avg # of iterations =  2.0

     negative rho (up, down):  2.029E-04 0.000E+00

     total cpu time spent up to now is     1123.0 secs

     total energy              =  -12616.39423131 Ry
     estimated scf accuracy    <       0.00023512 Ry

     iteration # 27     ecut=    70.00 Ry     beta= 0.20
     Davidson diagonalization with overlap
     ethr =  2.94E-08,  avg # of iterations =  4.1

     negative rho (up, down):  2.020E-04 0.000E+00

     total cpu time spent up to now is     1165.3 secs

     total energy              =  -12616.39423610 Ry
     estimated scf accuracy    <       0.00031558 Ry

     iteration # 28     ecut=    70.00 Ry     beta= 0.20
     Davidson diagonalization with overlap
     ethr =  2.94E-08,  avg # of iterations =  1.6

     negative rho (up, down):  2.024E-04 0.000E+00

     total cpu time spent up to now is     1205.0 secs

     total energy              =  -12616.39423720 Ry
     estimated scf accuracy    <       0.00026872 Ry

     iteration # 29     ecut=    70.00 Ry     beta= 0.20
     Davidson diagonalization with overlap
     ethr =  2.94E-08,  avg # of iterations =  1.7

     negative rho (up, down):  2.029E-04 0.000E+00

     total cpu time spent up to now is     1244.9 secs

     total energy              =  -12616.39424453 Ry
     estimated scf accuracy    <       0.00008500 Ry

     iteration # 30     ecut=    70.00 Ry     beta= 0.20
     Davidson diagonalization with overlap
     ethr =  1.06E-08,  avg # of iterations =  2.4

     negative rho (up, down):  2.027E-04 0.000E+00

     total cpu time spent up to now is     1285.6 secs

     total energy              =  -12616.39424632 Ry
     estimated scf accuracy    <       0.00008837 Ry

     iteration # 31     ecut=    70.00 Ry     beta= 0.20
     Davidson diagonalization with overlap
     ethr =  1.06E-08,  avg # of iterations =  1.0

     negative rho (up, down):  2.023E-04 0.000E+00

     total cpu time spent up to now is     1320.9 secs

     total energy              =  -12616.39424633 Ry
     estimated scf accuracy    <       0.00005532 Ry

     iteration # 32     ecut=    70.00 Ry     beta= 0.20
     Davidson diagonalization with overlap
     ethr =  6.91E-09,  avg # of iterations =  2.0

     negative rho (up, down):  2.022E-04 0.000E+00

     total cpu time spent up to now is     1361.3 secs

     total energy              =  -12616.39424725 Ry
     estimated scf accuracy    <       0.00000900 Ry

     iteration # 33     ecut=    70.00 Ry     beta= 0.20
     Davidson diagonalization with overlap
     ethr =  1.13E-09,  avg # of iterations =  6.0

     negative rho (up, down):  2.018E-04 0.000E+00

     total cpu time spent up to now is     1405.7 secs

     total energy              =  -12616.39424681 Ry
     estimated scf accuracy    <       0.00001356 Ry

     iteration # 34     ecut=    70.00 Ry     beta= 0.20
     Davidson diagonalization with overlap
     ethr =  1.13E-09,  avg # of iterations =  2.0

     negative rho (up, down):  2.016E-04 0.000E+00

     total cpu time spent up to now is     1446.0 secs

     total energy              =  -12616.39424626 Ry
     estimated scf accuracy    <       0.00002594 Ry

     iteration # 35     ecut=    70.00 Ry     beta= 0.20
     Davidson diagonalization with overlap
     ethr =  1.13E-09,  avg # of iterations =  1.0

     negative rho (up, down):  2.015E-04 0.000E+00

     total cpu time spent up to now is     1481.4 secs

     total energy              =  -12616.39424697 Ry
     estimated scf accuracy    <       0.00000207 Ry

     iteration # 36     ecut=    70.00 Ry     beta= 0.20
     Davidson diagonalization with overlap
     ethr =  2.59E-10,  avg # of iterations =  2.3

     negative rho (up, down):  2.014E-04 0.000E+00

     total cpu time spent up to now is     1522.3 secs

     total energy              =  -12616.39424692 Ry
     estimated scf accuracy    <       0.00000253 Ry

     iteration # 37     ecut=    70.00 Ry     beta= 0.20
     Davidson diagonalization with overlap
     ethr =  2.59E-10,  avg # of iterations =  1.0

     negative rho (up, down):  2.014E-04 0.000E+00

     total cpu time spent up to now is     1557.6 secs

     total energy              =  -12616.39424683 Ry
     estimated scf accuracy    <       0.00000279 Ry

     iteration # 38     ecut=    70.00 Ry     beta= 0.20
     Davidson diagonalization with overlap
     ethr =  2.59E-10,  avg # of iterations =  1.0

     negative rho (up, down):  2.013E-04 0.000E+00

     total cpu time spent up to now is     1593.0 secs

     total energy              =  -12616.39424682 Ry
     estimated scf accuracy    <       0.00000530 Ry

     iteration # 39     ecut=    70.00 Ry     beta= 0.20
     Davidson diagonalization with overlap
     ethr =  2.59E-10,  avg # of iterations =  1.0

     negative rho (up, down):  2.012E-04 0.000E+00

     total cpu time spent up to now is     1628.3 secs

     total energy              =  -12616.39424677 Ry
     estimated scf accuracy    <       0.00000275 Ry

     iteration # 40     ecut=    70.00 Ry     beta= 0.20
     Davidson diagonalization with overlap
     ethr =  2.59E-10,  avg # of iterations =  1.0

     negative rho (up, down):  2.011E-04 0.000E+00

     total cpu time spent up to now is     1663.7 secs

     total energy              =  -12616.39424676 Ry
     estimated scf accuracy    <       0.00000213 Ry

     iteration # 41     ecut=    70.00 Ry     beta= 0.20
     Davidson diagonalization with overlap
     ethr =  2.59E-10,  avg # of iterations =  1.0

     negative rho (up, down):  2.011E-04 0.000E+00

     total cpu time spent up to now is     1699.1 secs

     total energy              =  -12616.39424682 Ry
     estimated scf accuracy    <       0.00000047 Ry

     iteration # 42     ecut=    70.00 Ry     beta= 0.20
     Davidson diagonalization with overlap
     ethr =  5.86E-11,  avg # of iterations =  1.0

     negative rho (up, down):  2.011E-04 0.000E+00

     total cpu time spent up to now is     1734.5 secs

     total energy              =  -12616.39424683 Ry
     estimated scf accuracy    <       0.00000042 Ry

     iteration # 43     ecut=    70.00 Ry     beta= 0.20
     Davidson diagonalization with overlap
     ethr =  5.31E-11,  avg # of iterations =  1.0

     negative rho (up, down):  2.011E-04 0.000E+00

     total cpu time spent up to now is     1769.9 secs

     total energy              =  -12616.39424682 Ry
     estimated scf accuracy    <       0.00000012 Ry

     iteration # 44     ecut=    70.00 Ry     beta= 0.20
     Davidson diagonalization with overlap
     ethr =  1.53E-11,  avg # of iterations =  2.7

     negative rho (up, down):  2.010E-04 0.000E+00

     total cpu time spent up to now is     1811.3 secs

     total energy              =  -12616.39424681 Ry
     estimated scf accuracy    <       0.00000030 Ry

     iteration # 45     ecut=    70.00 Ry     beta= 0.20
     Davidson diagonalization with overlap
     ethr =  1.53E-11,  avg # of iterations =  1.1

     negative rho (up, down):  2.010E-04 0.000E+00

     total cpu time spent up to now is     1847.8 secs

     total energy              =  -12616.39424681 Ry
     estimated scf accuracy    <       0.00000006 Ry

     iteration # 46     ecut=    70.00 Ry     beta= 0.20
     Davidson diagonalization with overlap
     ethr =  7.84E-12,  avg # of iterations =  2.0

     negative rho (up, down):  2.010E-04 0.000E+00

     total cpu time spent up to now is     1888.1 secs

     total energy              =  -12616.39424681 Ry
     estimated scf accuracy    <       0.00000029 Ry

     iteration # 47     ecut=    70.00 Ry     beta= 0.20
     Davidson diagonalization with overlap
     ethr =  7.84E-12,  avg # of iterations =  1.0

     negative rho (up, down):  2.010E-04 0.000E+00

     total cpu time spent up to now is     1923.4 secs

     total energy              =  -12616.39424681 Ry
     estimated scf accuracy    <       0.00000008 Ry

     iteration # 48     ecut=    70.00 Ry     beta= 0.20
     Davidson diagonalization with overlap
     ethr =  7.84E-12,  avg # of iterations =  1.0

     negative rho (up, down):  2.010E-04 0.000E+00

     total cpu time spent up to now is     1958.9 secs

     total energy              =  -12616.39424681 Ry
     estimated scf accuracy    <       0.00000016 Ry

     iteration # 49     ecut=    70.00 Ry     beta= 0.20
     Davidson diagonalization with overlap
     ethr =  7.84E-12,  avg # of iterations =  1.0

     negative rho (up, down):  2.010E-04 0.000E+00

     total cpu time spent up to now is     1994.2 secs

     total energy              =  -12616.39424681 Ry
     estimated scf accuracy    <       0.00000002 Ry

     iteration # 50     ecut=    70.00 Ry     beta= 0.20
     Davidson diagonalization with overlap
     ethr =  2.27E-12,  avg # of iterations =  1.9

     negative rho (up, down):  2.009E-04 0.000E+00

     total cpu time spent up to now is     2034.3 secs

     total energy              =  -12616.39424681 Ry
     estimated scf accuracy    <       0.00000002 Ry

     iteration # 51     ecut=    70.00 Ry     beta= 0.20
     Davidson diagonalization with overlap
     ethr =  2.27E-12,  avg # of iterations =  1.0

     negative rho (up, down):  2.009E-04 0.000E+00

     total cpu time spent up to now is     2069.6 secs

     End of self-consistent calculation

          k = 0.0000 0.0000 0.0000 (108303 PWs)   bands (ev):

   -67.0589 -67.0190 -67.0184 -67.0180 -67.0102 -67.0101 -67.0094 -67.0072
   -66.9845 -66.9844 -66.9843 -66.9807 -66.9795 -66.9783 -66.9756 -66.9751
   -66.9743 -66.9741 -66.9735 -66.9623 -66.9610 -66.9605 -66.9573 -66.9563
   -66.8071 -66.7780 -66.7777 -66.7775 -66.7709 -66.7708 -66.7706 -66.7542
   -66.7540 -66.7538 -66.7477 -66.7475 -66.7072 -66.6890 -66.6843 -66.6827
   -66.6555 -66.6553 -66.6511 -66.6431 -66.6428 -66.6398 -66.6359 -66.6358
   -38.8628 -38.8360 -38.8348 -38.8340 -38.7337 -38.7328 -38.7327 -38.6942
   -38.6935 -38.6782 -38.6776 -38.6772 -38.6532 -38.6222 -38.6214 -38.6205
   -38.6002 -38.5995 -38.5987 -38.5718 -38.5697 -38.5692 -38.5358 -38.5351
   -38.5307 -38.5305 -38.5302 -38.5226 -38.4482 -38.4388 -38.4305 -38.4304
   -38.4299 -38.4259 -38.4259 -38.4239 -38.4233 -38.4231 -38.3860 -38.3857
   -38.3856 -38.3693 -38.3691 -38.3683 -38.3446 -38.3247 -38.3244 -38.3241
   -38.3217 -38.3216 -38.3216 -38.3206 -38.3206 -38.3032 -38.3031 -38.2992
   -38.2973 -38.2968 -38.2899 -38.2898 -38.2897 -38.2895 -38.2866 -38.2865
   -38.2748 -38.2742 -38.2738 -38.2682 -38.2612 -38.2609 -38.2604 -38.2114
   -38.2094 -38.2081 -38.2046 -38.2023 -38.2017 -38.1993 -38.1983 -38.1966
   -38.1767 -38.1744 -38.1737 -38.1714 -38.1549 -38.1544 -38.1541 -38.1387
   -38.1385 -38.1260 -38.1217 -38.1152 -38.1130 -38.1121 -38.1118 -38.1099
   -38.0983 -38.0972 -38.0922 -38.0914 -38.0912 -38.0631 -38.0629 -38.0626
   -38.0290 -38.0283 -38.0212 -38.0211 -38.0210 -38.0072 -38.0063 -38.0052
   -38.0048 -38.0043 -38.0030 -37.9868 -37.9834 -37.9823 -37.9817 -37.9701
   -37.9689 -37.9592 -37.9589 -37.9585 -37.9254 -37.9252 -37.9249 -37.9242
   -37.9240 -37.9239 -37.8955 -37.8953 -37.8880 -37.8745 -37.8698 -37.8688
   -37.7600 -37.7588 -37.7566 -37.7335 -37.7330 -37.7325 -37.7145 -37.7144
   -12.5600 -12.0900 -11.8576 -11.8570 -11.8565 -11.7100 -11.7082 -11.7068
   -11.6853 -11.6843 -11.6833 -11.4022 -11.4012 -11.3998 -11.3253 -11.2927
   -11.2918 -11.2909 -11.0609 -11.0404  -8.7697  -8.7693  -8.7691  -8.7117
    -7.9500  -3.0615  -3.0600  -3.0596  -2.8466  -2.8186  -2.8181  -2.6240
    -2.6240  -2.6235  -2.6011  -2.5964  -2.5960  -2.5277  -2.4677  -2.4639
    -2.4628  -2.3791  -2.3774  -2.3767  -2.2961  -2.2952  -1.8202  -1.8175
    -1.8174  -1.6416  -1.6400  -1.6396  -1.5569  -1.5504  -1.5468  -1.4868
    -1.4844  -1.4844  -1.4104  -1.3974  -1.3964  -1.3955  -1.3429  -1.3429
    -1.2877  -1.2845  -1.2843  -1.1495  -1.1465  -1.0435  -1.0049  -0.9777
    -0.9767  -0.9633  -0.9586  -0.9127  -0.8880  -0.8841  -0.8821  -0.8395
    -0.7452  -0.7436  -0.7211  -0.4939  -0.4932  -0.4924  -0.1760  -0.1719
     0.5996   1.1667   1.1669   1.1671   1.4096   1.4096   1.4098   1.4867
     1.5032   1.5032   1.5253   1.5256   1.5257   1.5467   1.5468   1.5469
     1.7207   1.7218   1.7222   2.0088   2.0092   2.0103   2.1354   2.1356
     2.1362   2.1663   2.2905   2.2928   2.2932   2.3805   2.3807   2.3842
     2.3951   2.3957   2.3971   2.4584   2.4591   2.4591   2.4763   2.6386
     2.6386   2.7420   2.7428   2.7429   3.0998   3.0999   3.1361   3.2286
     3.2287   3.2928   3.2933   3.2942   3.3077   3.3080   3.3118   3.4363
     3.4368   3.4391   3.4908   3.4965   3.4984   3.5872   3.6092   3.6123
     3.6170   3.6386   3.6391   3.6697   3.6711   3.6723   3.6737   3.7675
     3.7709   3.7731   3.9359   3.9378   3.9806   4.0818   4.0856   4.0867
     4.1032   4.1033   4.2367   4.2429   4.2505   4.2579   4.3069   4.3120
     4.3190   4.3592   4.3618   4.3620   4.3767   4.4365   4.4402   4.4404
     4.4930   4.4931   4.5990   4.6429   4.6472   4.6580   4.6901   4.7304
     4.7316   4.7407   4.7816   4.7825   4.8314   4.8378   4.8390   4.8995
     4.9019   4.9045   4.9611   4.9614   4.9818   5.0739   5.0785   5.0993
     5.1846   5.1891   5.2265   5.3372   5.3377   5.3383   5.4480   5.4483
     5.4938   5.4969   5.5091   5.5131   5.5136   5.5191   5.6423   5.6426
     5.6438   5.6532   5.6557   5.6622   5.6737   5.6739   5.7130   5.7133
     5.7371   5.7900   5.8097   5.8105   5.8110   5.8154   5.8156   5.8249
     5.8577   5.8606   5.9381   5.9383   5.9401   5.9571   5.9593   5.9594
     5.9600   5.9656   6.0128   6.0135   6.0138   6.0689   6.0696   6.0749
     6.1489   6.1502   6.1635   6.1643   6.1654   6.2084   6.2090   6.2164
     6.2177   6.2247   6.2637   6.2654   6.2665   6.3099   6.3137   6.3252
     6.4763   6.5163   6.5164   6.5170   6.5774   6.5779   6.5847   6.6185
     6.6206   6.6619   6.6640   6.6655   6.6732   6.6738   6.6873   6.7801

          k = 0.0000 0.2887 0.0000 (108355 PWs)   bands (ev):

   -67.0555 -67.0314 -67.0221 -67.0217 -67.0049 -67.0041 -67.0037 -66.9974
   -66.9884 -66.9871 -66.9869 -66.9831 -66.9822 -66.9813 -66.9764 -66.9758
   -66.9719 -66.9710 -66.9675 -66.9631 -66.9621 -66.9603 -66.9580 -66.9571
   -66.8045 -66.7867 -66.7803 -66.7798 -66.7669 -66.7666 -66.7626 -66.7559
   -66.7555 -66.7531 -66.7492 -66.7486 -66.7050 -66.6906 -66.6870 -66.6831
   -66.6542 -66.6531 -66.6488 -66.6437 -66.6426 -66.6406 -66.6374 -66.6363
   -38.8595 -38.8398 -38.8309 -38.8307 -38.7292 -38.7274 -38.7273 -38.7021
   -38.6920 -38.6848 -38.6843 -38.6816 -38.6548 -38.6395 -38.6256 -38.6240
   -38.5947 -38.5943 -38.5842 -38.5735 -38.5719 -38.5696 -38.5636 -38.5409
   -38.5247 -38.5244 -38.5229 -38.5015 -38.4411 -38.4407 -38.4360 -38.4320
   -38.4283 -38.4222 -38.4218 -38.4199 -38.4147 -38.4074 -38.3912 -38.3867
   -38.3866 -38.3774 -38.3715 -38.3714 -38.3463 -38.3406 -38.3265 -38.3264
   -38.3257 -38.3244 -38.3244 -38.3242 -38.3183 -38.3122 -38.3084 -38.3066
   -38.3051 -38.3045 -38.2947 -38.2927 -38.2923 -38.2848 -38.2755 -38.2744
   -38.2687 -38.2679 -38.2672 -38.2553 -38.2516 -38.2514 -38.2507 -38.2164
   -38.2151 -38.2134 -38.2129 -38.2107 -38.2032 -38.2011 -38.2005 -38.1880
   -38.1815 -38.1799 -38.1792 -38.1638 -38.1570 -38.1567 -38.1434 -38.1428
   -38.1318 -38.1263 -38.1249 -38.1192 -38.1157 -38.1107 -38.1084 -38.1008
   -38.1001 -38.0900 -38.0878 -38.0866 -38.0852 -38.0690 -38.0682 -38.0651
   -38.0333 -38.0292 -38.0270 -38.0189 -38.0188 -38.0152 -38.0051 -38.0034
   -38.0021 -38.0007 -37.9993 -37.9843 -37.9815 -37.9807 -37.9797 -37.9720
   -37.9704 -37.9616 -37.9610 -37.9574 -37.9315 -37.9277 -37.9272 -37.9192
   -37.9184 -37.9156 -37.9056 -37.8978 -37.8851 -37.8750 -37.8706 -37.8697
   -37.7580 -37.7558 -37.7538 -37.7338 -37.7327 -37.7296 -37.7233 -37.7163
   -12.4964 -12.0693 -12.0477 -11.9128 -11.9121 -11.7810 -11.6949 -11.6922
   -11.6196 -11.6178 -11.5391 -11.3937 -11.3911 -11.3443 -11.3253 -11.3235
   -11.3135 -11.2601 -11.0940 -11.0753  -8.7712  -8.7707  -8.7596  -8.7189
    -7.9500  -3.0291  -3.0273  -2.9871  -2.8755  -2.8047  -2.7925  -2.7667
    -2.7639  -2.7622  -2.6463  -2.6455  -2.4955  -2.4561  -2.4091  -2.4062
    -2.4054  -2.3471  -2.2951  -2.2641  -2.2620  -2.2179  -2.0176  -1.8265
    -1.8255  -1.7827  -1.6951  -1.6887  -1.6332  -1.5413  -1.5404  -1.4999
    -1.4804  -1.4547  -1.4497  -1.4263  -1.3825  -1.3803  -1.3682  -1.3128
    -1.3116  -1.2964  -1.1817  -1.1407  -1.1218  -1.0746  -1.0191  -0.9852
    -0.9625  -0.9529  -0.9147  -0.8955  -0.8918  -0.8663  -0.8397  -0.8069
    -0.7837  -0.7127  -0.7022  -0.5648  -0.5200  -0.5189  -0.1763  -0.1721
     0.7207   1.1284   1.1599   1.1604   1.3992   1.3995   1.4097   1.4115
     1.4771   1.4951   1.4953   1.5140   1.5761   1.6156   1.6171   1.6289
     1.7325   1.7342   1.7779   2.0166   2.0175   2.0607   2.1117   2.1135
     2.1656   2.2191   2.2530   2.2543   2.2782   2.3760   2.3769   2.3945
     2.4067   2.4071   2.4700   2.5002   2.5010   2.5206   2.5416   2.5709
     2.6733   2.7533   2.7544   2.8154   2.9688   3.0207   3.0833   3.1536
     3.1552   3.1839   3.1900   3.2177   3.3153   3.3179   3.3449   3.3504
     3.3513   3.3936   3.4698   3.5493   3.5515   3.5608   3.5937   3.6394
     3.6541   3.6594   3.6651   3.6833   3.7321   3.7349   3.7362   3.8183
     3.9431   3.9663   3.9720   3.9796   3.9881   3.9954   4.0095   4.0988
     4.1209   4.1322   4.1909   4.1966   4.2238   4.2518   4.2598   4.2627
     4.2951   4.3145   4.3337   4.3370   4.3565   4.4297   4.4363   4.4467
     4.4511   4.5142   4.5258   4.6355   4.6453   4.6597   4.6873   4.7201
     4.7302   4.7377   4.7885   4.8005   4.8264   4.8809   4.8913   4.8930
     4.9262   4.9292   4.9560   5.0183   5.0404   5.0932   5.1053   5.1377
     5.1524   5.1851   5.2035   5.2536   5.2786   5.3104   5.3183   5.4019
     5.4214   5.4222   5.4232   5.4741   5.5038   5.5112   5.5223   5.5282
     5.5378   5.6394   5.6569   5.6593   5.6998   5.7048   5.7117   5.7150
     5.7288   5.7629   5.7672   5.7865   5.7921   5.8399   5.8413   5.8430
     5.8488   5.8934   5.9056   5.9201   5.9272   5.9283   5.9724   5.9739
     5.9776   5.9935   5.9981   6.0002   6.0139   6.0157   6.0492   6.1304
     6.1602   6.1608   6.1797   6.2044   6.2056   6.2069   6.2138   6.2586
     6.2683   6.2690   6.2762   6.3217   6.3540   6.3574   6.3654   6.4056
     6.4189   6.4209   6.4890   6.4909   6.5066   6.5121   6.6017   6.6056
     6.6283   6.6415   6.6546   6.6751   6.6937   6.6953   6.7540   6.7578

          k = 0.0000-0.5774 0.0000 (108310 PWs)   bands (ev):

   -67.0457 -67.0456 -67.0242 -67.0238 -66.9983 -66.9977 -66.9966 -66.9963
   -66.9925 -66.9923 -66.9848 -66.9846 -66.9836 -66.9828 -66.9797 -66.9796
   -66.9681 -66.9666 -66.9653 -66.9652 -66.9616 -66.9601 -66.9591 -66.9588
   -66.7974 -66.7970 -66.7817 -66.7813 -66.7618 -66.7617 -66.7596 -66.7590
   -66.7545 -66.7540 -66.7511 -66.7508 -66.7012 -66.6951 -66.6882 -66.6835
   -66.6527 -66.6506 -66.6469 -66.6432 -66.6420 -66.6418 -66.6403 -66.6369
   -38.8506 -38.8500 -38.8267 -38.8263 -38.7213 -38.7211 -38.7179 -38.7165
   -38.6920 -38.6917 -38.6879 -38.6878 -38.6534 -38.6533 -38.6278 -38.6262
   -38.5905 -38.5900 -38.5817 -38.5808 -38.5763 -38.5752 -38.5550 -38.5547
   -38.5175 -38.5170 -38.5056 -38.5051 -38.4505 -38.4501 -38.4276 -38.4275
   -38.4219 -38.4216 -38.4117 -38.4116 -38.4004 -38.3997 -38.3888 -38.3885
   -38.3833 -38.3830 -38.3746 -38.3740 -38.3612 -38.3611 -38.3291 -38.3289
   -38.3288 -38.3283 -38.3237 -38.3236 -38.3208 -38.3203 -38.3122 -38.3104
   -38.3044 -38.3041 -38.2995 -38.2955 -38.2952 -38.2944 -38.2716 -38.2707
   -38.2542 -38.2516 -38.2460 -38.2443 -38.2442 -38.2424 -38.2409 -38.2394
   -38.2258 -38.2235 -38.2227 -38.2202 -38.1955 -38.1935 -38.1922 -38.1919
   -38.1886 -38.1882 -38.1748 -38.1735 -38.1579 -38.1577 -38.1389 -38.1378
   -38.1289 -38.1254 -38.1229 -38.1195 -38.1170 -38.1123 -38.1056 -38.1036
   -38.0981 -38.0969 -38.0834 -38.0812 -38.0775 -38.0747 -38.0543 -38.0532
   -38.0430 -38.0421 -38.0294 -38.0285 -38.0172 -38.0169 -38.0037 -38.0006
   -37.9987 -37.9972 -37.9925 -37.9924 -37.9781 -37.9769 -37.9765 -37.9739
   -37.9643 -37.9639 -37.9633 -37.9628 -37.9291 -37.9286 -37.9254 -37.9248
   -37.9152 -37.9143 -37.9055 -37.9050 -37.8812 -37.8745 -37.8737 -37.8707
   -37.7560 -37.7510 -37.7432 -37.7413 -37.7347 -37.7327 -37.7244 -37.7200
   -12.3199 -12.3189 -11.9475 -11.9466 -11.9334 -11.9320 -11.7026 -11.7000
   -11.5316 -11.5304 -11.4060 -11.4057 -11.3938 -11.3901 -11.3697 -11.3684
   -11.1860 -11.1843 -11.1679 -11.1678  -8.7728  -8.7723  -8.7381  -8.7377
    -7.9500  -2.9925  -2.9903  -2.9007  -2.8998  -2.8333  -2.8329  -2.8312
    -2.8292  -2.7068  -2.7063  -2.5907  -2.5893  -2.4258  -2.4236  -2.3627
    -2.3579  -2.3089  -2.3035  -2.1793  -2.1775  -2.0951  -2.0944  -1.9024
    -1.9017  -1.7667  -1.7580  -1.7175  -1.7126  -1.6284  -1.6261  -1.5040
    -1.5033  -1.5030  -1.4961  -1.3750  -1.3741  -1.3239  -1.3224  -1.3076
    -1.3049  -1.1915  -1.1904  -1.1091  -1.1087  -1.0917  -1.0904  -0.9632
    -0.9619  -0.9606  -0.9157  -0.9110  -0.8952  -0.7988  -0.7931  -0.7897
    -0.7304  -0.7224  -0.6810  -0.6804  -0.5437  -0.5430  -0.1766  -0.1724
     0.9626   0.9643   1.1478   1.1484   1.3784   1.3798   1.3996   1.4000
     1.4751   1.4754   1.4917   1.4917   1.6336   1.6344   1.6445   1.6494
     1.8714   1.8727   1.8778   1.8786   2.0504   2.0530   2.0887   2.0910
     2.1810   2.1819   2.3130   2.3138   2.3359   2.3369   2.3691   2.3691
     2.4076   2.4093   2.4219   2.4222   2.5287   2.5301   2.6982   2.7025
     2.7546   2.7567   2.7759   2.7776   2.9688   2.9728   2.9913   2.9935
     3.0614   3.0614   3.1575   3.1620   3.2792   3.2801   3.3422   3.3443
     3.3747   3.3770   3.4713   3.4721   3.5762   3.5778   3.6263   3.6274
     3.6920   3.6921   3.7588   3.7703   3.8241   3.8249   3.8581   3.8619
     3.8959   3.8966   3.9179   3.9334   3.9550   3.9613   4.0728   4.0906
     4.1050   4.1080   4.2220   4.2374   4.2451   4.2732   4.2976   4.2990
     4.3082   4.3153   4.3166   4.3328   4.3930   4.4063   4.4197   4.4236
     4.4312   4.4397   4.5610   4.5643   4.5668   4.5920   4.6310   4.6317
     4.6506   4.6522   4.7622   4.7768   4.9431   4.9444   4.9455   4.9496
     4.9497   4.9657   5.0140   5.0236   5.0709   5.0727   5.0892   5.0907
     5.1388   5.1404   5.2203   5.2435   5.2964   5.2973   5.3085   5.3104
     5.3902   5.3917   5.4180   5.4222   5.4769   5.4777   5.5169   5.5257
     5.5451   5.5487   5.5504   5.6020   5.6604   5.6624   5.6980   5.6986
     5.7170   5.7203   5.7388   5.7524   5.7965   5.7998   5.8283   5.8314
     5.8480   5.8504   5.8673   5.8696   5.9205   5.9352   5.9570   5.9580
     5.9943   6.0007   6.0318   6.0443   6.1136   6.1161   6.1273   6.1315
     6.1324   6.1378   6.1494   6.1518   6.1642   6.1670   6.2972   6.2977
     6.2994   6.3036   6.3430   6.3560   6.3779   6.3829   6.3999   6.4013
     6.4164   6.4210   6.4493   6.4497   6.5700   6.5721   6.5745   6.5756
     6.6118   6.6160   6.6638   6.6671   6.8066   6.8096   6.8164   6.8192

          k = 0.2500 0.4330 0.0000 (108308 PWs)   bands (ev):

   -67.0488 -67.0371 -67.0365 -67.0130 -67.0051 -67.0001 -66.9955 -66.9923
   -66.9915 -66.9906 -66.9900 -66.9844 -66.9842 -66.9808 -66.9798 -66.9760
   -66.9724 -66.9669 -66.9644 -66.9638 -66.9615 -66.9607 -66.9594 -66.9585
   -66.7996 -66.7907 -66.7906 -66.7740 -66.7674 -66.7612 -66.7580 -66.7578
   -66.7540 -66.7538 -66.7519 -66.7509 -66.7014 -66.6933 -66.6909 -66.6822
   -66.6527 -66.6512 -66.6460 -66.6444 -66.6429 -66.6405 -66.6392 -66.6378
   -38.8528 -38.8415 -38.8403 -38.8188 -38.7232 -38.7223 -38.7168 -38.7126
   -38.6982 -38.6896 -38.6870 -38.6864 -38.6545 -38.6458 -38.6451 -38.6059
   -38.5997 -38.5880 -38.5875 -38.5822 -38.5808 -38.5637 -38.5624 -38.5488
   -38.5136 -38.5133 -38.5121 -38.5012 -38.4769 -38.4300 -38.4298 -38.4295
   -38.4218 -38.4171 -38.4078 -38.4053 -38.4052 -38.3984 -38.3981 -38.3893
   -38.3829 -38.3759 -38.3757 -38.3750 -38.3577 -38.3519 -38.3517 -38.3306
   -38.3305 -38.3261 -38.3228 -38.3215 -38.3155 -38.3140 -38.3114 -38.3113
   -38.3080 -38.3030 -38.3008 -38.2949 -38.2934 -38.2914 -38.2910 -38.2573
   -38.2536 -38.2521 -38.2514 -38.2436 -38.2431 -38.2421 -38.2404 -38.2306
   -38.2272 -38.2253 -38.2244 -38.2235 -38.1981 -38.1935 -38.1929 -38.1845
   -38.1837 -38.1822 -38.1819 -38.1779 -38.1714 -38.1431 -38.1417 -38.1401
   -38.1299 -38.1274 -38.1209 -38.1198 -38.1185 -38.1117 -38.1100 -38.1063
   -38.0977 -38.0860 -38.0840 -38.0824 -38.0767 -38.0641 -38.0633 -38.0585
   -38.0437 -38.0317 -38.0313 -38.0277 -38.0174 -38.0169 -38.0093 -38.0023
   -38.0007 -37.9959 -37.9938 -37.9905 -37.9785 -37.9765 -37.9754 -37.9719
   -37.9687 -37.9666 -37.9587 -37.9585 -37.9335 -37.9333 -37.9218 -37.9209
   -37.9193 -37.9099 -37.9097 -37.9021 -37.8815 -37.8751 -37.8721 -37.8713
   -37.7532 -37.7517 -37.7484 -37.7395 -37.7371 -37.7270 -37.7267 -37.7198
   -12.3761 -12.1632 -12.1624 -11.9691 -11.8350 -11.8337 -11.7854 -11.6179
   -11.5927 -11.4818 -11.4629 -11.4623 -11.4470 -11.3819 -11.2700 -11.2683
   -11.2478 -11.2476 -11.1575 -11.1401  -8.7812  -8.7538  -8.7537  -8.7322
    -7.9500  -3.0423  -2.9449  -2.9438  -2.9277  -2.8160  -2.8149  -2.7740
    -2.7390  -2.6872  -2.6734  -2.6509  -2.6498  -2.6046  -2.4151  -2.2803
    -2.2789  -2.2669  -2.2419  -2.1891  -2.1872  -2.1451  -2.1430  -2.0168
    -1.8403  -1.8340  -1.7552  -1.7270  -1.6388  -1.5866  -1.5841  -1.5077
    -1.4832  -1.4639  -1.4357  -1.4292  -1.4258  -1.4245  -1.3656  -1.2480
    -1.2464  -1.2015  -1.2010  -1.1788  -1.1337  -1.0234  -1.0022  -0.9942
    -0.9521  -0.9371  -0.9254  -0.8984  -0.8871  -0.8680  -0.8281  -0.8128
    -0.7831  -0.7166  -0.6214  -0.6112  -0.6102  -0.5149  -0.1766  -0.1723
     0.8972   1.0799   1.0808   1.1806   1.3654   1.3817   1.3827   1.3838
     1.4273   1.5087   1.5092   1.5359   1.6025   1.6213   1.6233   1.6801
     1.7987   1.9170   1.9185   2.0058   2.0067   2.0699   2.0707   2.1288
     2.1363   2.1980   2.1988   2.2301   2.3044   2.3099   2.3449   2.3453
     2.3972   2.4460   2.5127   2.5381   2.5399   2.6244   2.6248   2.7407
     2.7433   2.7462   2.7770   2.7832   2.8799   2.8833   2.8852   2.9513
     3.1324   3.1961   3.2400   3.2442   3.2874   3.2885   3.2951   3.3811
     3.3861   3.3873   3.4025   3.5107   3.5305   3.5313   3.6032   3.6586
     3.6745   3.7027   3.7076   3.7394   3.7415   3.7976   3.8208   3.8351
     3.9707   3.9846   4.0018   4.0125   4.0201   4.0284   4.0347   4.0661
     4.0868   4.1360   4.1526   4.1849   4.1925   4.2440   4.2528   4.2813
     4.3103   4.3195   4.3464   4.3554   4.3847   4.3966   4.4145   4.4229
     4.5115   4.5143   4.5367   4.5481   4.5565   4.5607   4.5797   4.6268
     4.6804   4.8132   4.8146   4.8340   4.8379   4.8451   4.8586   4.8630
     4.9066   4.9248   4.9936   5.0054   5.0743   5.0842   5.1148   5.1190
     5.1294   5.2276   5.2469   5.2665   5.2723   5.3011   5.3357   5.3780
     5.3876   5.3885   5.4057   5.4360   5.4548   5.4676   5.4833   5.5406
     5.5524   5.5722   5.5859   5.6648   5.6820   5.6846   5.6869   5.6938
     5.7273   5.7290   5.7320   5.7394   5.7521   5.8177   5.8207   5.8283
     5.8325   5.8457   5.8637   5.8791   5.8868   5.9209   5.9311   5.9822
     5.9874   5.9950   6.0226   6.0260   6.0473   6.0524   6.0620   6.1313
     6.1333   6.1359   6.1671   6.1719   6.1916   6.2242   6.2461   6.2527
     6.2932   6.3037   6.3273   6.3278   6.3832   6.4153   6.4198   6.4537
     6.4555   6.4579   6.5189   6.5195   6.5481   6.5732   6.6060   6.6258
     6.6293   6.6370   6.6706   6.6797   6.6863   6.7502   6.8033   6.8061

          k =-0.2500 0.1443 0.0000 (108355 PWs)   bands (ev):

   -67.0555 -67.0314 -67.0223 -67.0217 -67.0048 -67.0040 -67.0035 -66.9976
   -66.9882 -66.9872 -66.9869 -66.9831 -66.9825 -66.9812 -66.9767 -66.9756
   -66.9716 -66.9708 -66.9677 -66.9632 -66.9618 -66.9606 -66.9580 -66.9570
   -66.8045 -66.7868 -66.7801 -66.7800 -66.7669 -66.7667 -66.7626 -66.7558
   -66.7556 -66.7532 -66.7492 -66.7487 -66.7050 -66.6913 -66.6853 -66.6841
   -66.6543 -66.6529 -66.6489 -66.6440 -66.6428 -66.6399 -66.6373 -66.6366
   -38.8595 -38.8397 -38.8315 -38.8302 -38.7284 -38.7283 -38.7273 -38.7015
   -38.6926 -38.6849 -38.6840 -38.6821 -38.6549 -38.6400 -38.6250 -38.6235
   -38.5953 -38.5939 -38.5843 -38.5736 -38.5715 -38.5700 -38.5633 -38.5413
   -38.5248 -38.5244 -38.5227 -38.5013 -38.4413 -38.4408 -38.4359 -38.4321
   -38.4282 -38.4221 -38.4219 -38.4198 -38.4147 -38.4074 -38.3911 -38.3869
   -38.3866 -38.3773 -38.3717 -38.3711 -38.3463 -38.3407 -38.3265 -38.3262
   -38.3258 -38.3247 -38.3243 -38.3240 -38.3183 -38.3122 -38.3083 -38.3071
   -38.3052 -38.3042 -38.2945 -38.2929 -38.2918 -38.2848 -38.2754 -38.2746
   -38.2685 -38.2678 -38.2676 -38.2552 -38.2516 -38.2511 -38.2509 -38.2163
   -38.2151 -38.2138 -38.2126 -38.2113 -38.2032 -38.2011 -38.2004 -38.1880
   -38.1812 -38.1798 -38.1793 -38.1637 -38.1568 -38.1563 -38.1437 -38.1433
   -38.1319 -38.1280 -38.1228 -38.1197 -38.1146 -38.1122 -38.1074 -38.1017
   -38.0992 -38.0894 -38.0882 -38.0865 -38.0851 -38.0693 -38.0684 -38.0650
   -38.0336 -38.0290 -38.0270 -38.0191 -38.0188 -38.0149 -38.0044 -38.0033
   -38.0017 -38.0009 -38.0004 -37.9845 -37.9812 -37.9807 -37.9799 -37.9723
   -37.9700 -37.9615 -37.9612 -37.9573 -37.9314 -37.9277 -37.9274 -37.9187
   -37.9186 -37.9158 -37.9054 -37.8980 -37.8851 -37.8750 -37.8707 -37.8697
   -37.7573 -37.7563 -37.7543 -37.7340 -37.7328 -37.7292 -37.7230 -37.7165
   -12.4964 -12.0692 -12.0477 -11.9127 -11.9122 -11.7811 -11.6936 -11.6933
   -11.6187 -11.6186 -11.5391 -11.3926 -11.3923 -11.3443 -11.3245 -11.3245
   -11.3133 -11.2600 -11.0940 -11.0753  -8.7711  -8.7709  -8.7596  -8.7189
    -7.9500  -3.0289  -3.0274  -2.9875  -2.8756  -2.8047  -2.7923  -2.7655
    -2.7642  -2.7622  -2.6469  -2.6456  -2.4951  -2.4567  -2.4103  -2.4063
    -2.4058  -2.3469  -2.2941  -2.2645  -2.2621  -2.2166  -2.0163  -1.8281
    -1.8257  -1.7830  -1.6914  -1.6901  -1.6346  -1.5415  -1.5402  -1.4975
    -1.4810  -1.4518  -1.4501  -1.4279  -1.3818  -1.3806  -1.3696  -1.3129
    -1.3120  -1.2965  -1.1823  -1.1430  -1.1235  -1.0745  -1.0283  -0.9724
    -0.9595  -0.9531  -0.9105  -0.8933  -0.8927  -0.8634  -0.8489  -0.8250
    -0.7661  -0.7125  -0.7049  -0.5643  -0.5196  -0.5193  -0.1761  -0.1721
     0.7208   1.1285   1.1600   1.1601   1.3992   1.3993   1.4097   1.4115
     1.4777   1.4950   1.4953   1.5140   1.5762   1.6157   1.6166   1.6292
     1.7329   1.7342   1.7772   2.0166   2.0174   2.0611   2.1123   2.1131
     2.1657   2.2186   2.2534   2.2542   2.2786   2.3761   2.3779   2.3945
     2.4061   2.4069   2.4684   2.5001   2.5012   2.5202   2.5414   2.5704
     2.6736   2.7532   2.7536   2.8164   2.9688   3.0203   3.0848   3.1538
     3.1544   3.1839   3.1900   3.2175   3.3157   3.3172   3.3454   3.3506
     3.3519   3.3936   3.4698   3.5477   3.5521   3.5617   3.5912   3.6362
     3.6543   3.6644   3.6709   3.6838   3.7322   3.7335   3.7358   3.8189
     3.9454   3.9638   3.9713   3.9763   3.9917   3.9955   4.0074   4.0969
     4.1227   4.1314   4.1929   4.1985   4.2322   4.2502   4.2559   4.2607
     4.2886   4.3144   4.3327   4.3346   4.3511   4.4311   4.4368   4.4475
     4.4534   4.5146   4.5256   4.6265   4.6466   4.6678   4.6962   4.7218
     4.7247   4.7375   4.7865   4.7994   4.8294   4.8811   4.8921   4.8957
     4.9270   4.9298   4.9562   5.0183   5.0427   5.0906   5.0986   5.1369
     5.1487   5.1861   5.2151   5.2516   5.2801   5.3102   5.3149   5.4048
     5.4223   5.4226   5.4243   5.4731   5.5026   5.5083   5.5181   5.5281
     5.5316   5.6275   5.6574   5.6728   5.7040   5.7075   5.7123   5.7144
     5.7257   5.7634   5.7680   5.7826   5.7885   5.8392   5.8421   5.8441
     5.8487   5.8995   5.9104   5.9189   5.9261   5.9332   5.9710   5.9729
     5.9755   5.9914   5.9999   6.0008   6.0146   6.0156   6.0472   6.1329
     6.1588   6.1607   6.1798   6.2049   6.2059   6.2103   6.2133   6.2636
     6.2684   6.2693   6.2748   6.3211   6.3513   6.3559   6.3587   6.4059
     6.4195   6.4240   6.4892   6.4913   6.5051   6.5111   6.6028   6.6070
     6.6289   6.6405   6.6541   6.6727   6.6939   6.7030   6.7538   6.7551

          k = 0.2500 0.1443 0.0000 (108355 PWs)   bands (ev):

   -67.0555 -67.0314 -67.0223 -67.0217 -67.0048 -67.0040 -67.0035 -66.9976
   -66.9882 -66.9872 -66.9869 -66.9831 -66.9825 -66.9812 -66.9767 -66.9756
   -66.9716 -66.9708 -66.9677 -66.9632 -66.9618 -66.9606 -66.9580 -66.9569
   -66.8045 -66.7868 -66.7801 -66.7800 -66.7669 -66.7667 -66.7626 -66.7558
   -66.7556 -66.7532 -66.7492 -66.7487 -66.7050 -66.6913 -66.6853 -66.6841
   -66.6542 -66.6530 -66.6489 -66.6440 -66.6428 -66.6399 -66.6373 -66.6366
   -38.8595 -38.8396 -38.8315 -38.8302 -38.7283 -38.7283 -38.7273 -38.7015
   -38.6926 -38.6849 -38.6840 -38.6821 -38.6549 -38.6400 -38.6250 -38.6235
   -38.5953 -38.5939 -38.5843 -38.5736 -38.5715 -38.5701 -38.5633 -38.5413
   -38.5248 -38.5244 -38.5227 -38.5013 -38.4413 -38.4407 -38.4358 -38.4321
   -38.4282 -38.4221 -38.4219 -38.4199 -38.4147 -38.4074 -38.3911 -38.3869
   -38.3866 -38.3773 -38.3717 -38.3711 -38.3463 -38.3407 -38.3265 -38.3262
   -38.3258 -38.3248 -38.3243 -38.3240 -38.3183 -38.3122 -38.3083 -38.3072
   -38.3052 -38.3042 -38.2945 -38.2929 -38.2918 -38.2848 -38.2754 -38.2746
   -38.2685 -38.2678 -38.2676 -38.2552 -38.2516 -38.2512 -38.2509 -38.2163
   -38.2152 -38.2138 -38.2126 -38.2113 -38.2032 -38.2011 -38.2004 -38.1880
   -38.1812 -38.1798 -38.1794 -38.1637 -38.1568 -38.1563 -38.1437 -38.1433
   -38.1319 -38.1280 -38.1227 -38.1197 -38.1147 -38.1123 -38.1074 -38.1017
   -38.0992 -38.0894 -38.0882 -38.0865 -38.0851 -38.0693 -38.0684 -38.0650
   -38.0336 -38.0290 -38.0270 -38.0191 -38.0188 -38.0149 -38.0044 -38.0033
   -38.0017 -38.0010 -38.0005 -37.9845 -37.9811 -37.9807 -37.9798 -37.9723
   -37.9700 -37.9615 -37.9613 -37.9573 -37.9314 -37.9277 -37.9274 -37.9187
   -37.9186 -37.9158 -37.9054 -37.8980 -37.8851 -37.8750 -37.8707 -37.8697
   -37.7573 -37.7562 -37.7543 -37.7340 -37.7329 -37.7291 -37.7230 -37.7164
   -12.4964 -12.0692 -12.0477 -11.9127 -11.9122 -11.7811 -11.6936 -11.6933
   -11.6187 -11.6186 -11.5391 -11.3926 -11.3923 -11.3443 -11.3245 -11.3245
   -11.3133 -11.2600 -11.0940 -11.0753  -8.7711  -8.7709  -8.7596  -8.7189
    -7.9500  -3.0289  -3.0274  -2.9875  -2.8756  -2.8047  -2.7923  -2.7655
    -2.7642  -2.7622  -2.6469  -2.6456  -2.4951  -2.4567  -2.4103  -2.4063
    -2.4058  -2.3469  -2.2941  -2.2645  -2.2621  -2.2166  -2.0163  -1.8281
    -1.8258  -1.7831  -1.6914  -1.6900  -1.6346  -1.5415  -1.5402  -1.4975
    -1.4810  -1.4518  -1.4501  -1.4279  -1.3818  -1.3806  -1.3696  -1.3129
    -1.3120  -1.2965  -1.1824  -1.1430  -1.1235  -1.0745  -1.0283  -0.9723
    -0.9595  -0.9531  -0.9106  -0.8933  -0.8927  -0.8634  -0.8488  -0.8251
    -0.7662  -0.7125  -0.7049  -0.5643  -0.5196  -0.5193  -0.1763  -0.1720
     0.7208   1.1285   1.1600   1.1601   1.3992   1.3993   1.4097   1.4115
     1.4777   1.4950   1.4953   1.5140   1.5762   1.6157   1.6166   1.6292
     1.7329   1.7341   1.7772   2.0166   2.0174   2.0610   2.1123   2.1132
     2.1657   2.2186   2.2534   2.2542   2.2786   2.3761   2.3779   2.3945
     2.4061   2.4069   2.4684   2.5000   2.5012   2.5202   2.5414   2.5704
     2.6737   2.7532   2.7537   2.8164   2.9689   3.0203   3.0847   3.1538
     3.1544   3.1839   3.1900   3.2174   3.3156   3.3173   3.3454   3.3506
     3.3519   3.3937   3.4698   3.5474   3.5523   3.5617   3.5911   3.6360
     3.6543   3.6650   3.6710   3.6838   3.7321   3.7335   3.7358   3.8190
     3.9454   3.9635   3.9709   3.9763   3.9916   3.9956   4.0073   4.0969
     4.1231   4.1315   4.1934   4.1986   4.2323   4.2499   4.2556   4.2607
     4.2883   4.3144   4.3326   4.3342   4.3510   4.4312   4.4372   4.4472
     4.4535   4.5146   4.5256   4.6267   4.6467   4.6683   4.6960   4.7218
     4.7247   4.7375   4.7867   4.7995   4.8293   4.8811   4.8922   4.8957
     4.9271   4.9298   4.9562   5.0185   5.0424   5.0904   5.0982   5.1368
     5.1491   5.1863   5.2147   5.2516   5.2801   5.3102   5.3148   5.4049
     5.4223   5.4227   5.4242   5.4732   5.5022   5.5083   5.5181   5.5281
     5.5316   5.6277   5.6575   5.6727   5.7041   5.7074   5.7124   5.7143
     5.7256   5.7634   5.7679   5.7828   5.7885   5.8392   5.8422   5.8441
     5.8488   5.8993   5.9103   5.9189   5.9262   5.9331   5.9710   5.9729
     5.9755   5.9915   5.9999   6.0009   6.0146   6.0156   6.0470   6.1329
     6.1589   6.1607   6.1798   6.2049   6.2059   6.2103   6.2132   6.2635
     6.2685   6.2693   6.2749   6.3211   6.3512   6.3557   6.3587   6.4059
     6.4196   6.4240   6.4893   6.4914   6.5051   6.5112   6.6031   6.6071
     6.6290   6.6406   6.6540   6.6728   6.6940   6.7030   6.7541   6.7552

          k = 0.5000-0.2887 0.0000 (108310 PWs)   bands (ev):

   -67.0460 -67.0453 -67.0244 -67.0238 -66.9984 -66.9974 -66.9963 -66.9958
   -66.9931 -66.9925 -66.9850 -66.9847 -66.9838 -66.9827 -66.9797 -66.9793
   -66.9671 -66.9667 -66.9665 -66.9644 -66.9619 -66.9606 -66.9596 -66.9580
   -66.7973 -66.7971 -66.7816 -66.7814 -66.7620 -66.7617 -66.7592 -66.7592
   -66.7543 -66.7541 -66.7511 -66.7509 -66.7007 -66.6964 -66.6863 -66.6846
   -66.6529 -66.6497 -66.6480 -66.6443 -66.6414 -66.6411 -66.6394 -66.6378
   -38.8508 -38.8496 -38.8272 -38.8258 -38.7224 -38.7210 -38.7167 -38.7162
   -38.6926 -38.6911 -38.6889 -38.6878 -38.6540 -38.6533 -38.6272 -38.6255
   -38.5915 -38.5898 -38.5813 -38.5806 -38.5764 -38.5746 -38.5561 -38.5546
   -38.5175 -38.5171 -38.5052 -38.5050 -38.4507 -38.4501 -38.4276 -38.4275
   -38.4218 -38.4216 -38.4117 -38.4113 -38.4002 -38.3999 -38.3889 -38.3886
   -38.3832 -38.3829 -38.3746 -38.3740 -38.3615 -38.3613 -38.3290 -38.3288
   -38.3288 -38.3286 -38.3239 -38.3234 -38.3205 -38.3204 -38.3126 -38.3106
   -38.3045 -38.3041 -38.2988 -38.2961 -38.2948 -38.2945 -38.2712 -38.2708
   -38.2546 -38.2515 -38.2459 -38.2446 -38.2432 -38.2426 -38.2404 -38.2396
   -38.2252 -38.2248 -38.2228 -38.2214 -38.1945 -38.1931 -38.1922 -38.1920
   -38.1884 -38.1881 -38.1749 -38.1743 -38.1578 -38.1570 -38.1393 -38.1383
   -38.1319 -38.1234 -38.1224 -38.1189 -38.1160 -38.1140 -38.1041 -38.1033
   -38.0985 -38.0971 -38.0824 -38.0813 -38.0779 -38.0753 -38.0538 -38.0529
   -38.0429 -38.0425 -38.0295 -38.0290 -38.0174 -38.0171 -38.0019 -38.0008
   -37.9988 -37.9983 -37.9933 -37.9921 -37.9780 -37.9776 -37.9750 -37.9740
   -37.9644 -37.9641 -37.9633 -37.9631 -37.9292 -37.9288 -37.9249 -37.9248
   -37.9146 -37.9145 -37.9055 -37.9053 -37.8811 -37.8754 -37.8722 -37.8713
   -37.7545 -37.7528 -37.7439 -37.7417 -37.7334 -37.7330 -37.7226 -37.7215
   -12.3198 -12.3190 -11.9473 -11.9468 -11.9334 -11.9321 -11.7013 -11.7011
   -11.5311 -11.5308 -11.4064 -11.4054 -11.3920 -11.3919 -11.3692 -11.3691
   -11.1863 -11.1840 -11.1679 -11.1678  -8.7726  -8.7725  -8.7380  -8.7378
    -7.9500  -2.9929  -2.9901  -2.9005  -2.8998  -2.8349  -2.8328  -2.8298
    -2.8294  -2.7071  -2.7067  -2.5902  -2.5894  -2.4262  -2.4242  -2.3606
    -2.3590  -2.3056  -2.3042  -2.1810  -2.1777  -2.0972  -2.0947  -1.9018
    -1.9011  -1.7616  -1.7580  -1.7162  -1.7135  -1.6314  -1.6266  -1.5059
    -1.5036  -1.4968  -1.4961  -1.3800  -1.3732  -1.3234  -1.3228  -1.3065
    -1.3064  -1.1939  -1.1909  -1.1102  -1.1085  -1.0997  -1.0905  -0.9706
    -0.9621  -0.9246  -0.9150  -0.8992  -0.8964  -0.8510  -0.7929  -0.7758
    -0.7305  -0.7183  -0.6806  -0.6766  -0.5433  -0.5427  -0.1762  -0.1724
     0.9622   0.9652   1.1480   1.1481   1.3782   1.3802   1.3996   1.3997
     1.4752   1.4753   1.4914   1.4921   1.6333   1.6353   1.6452   1.6479
     1.8715   1.8725   1.8781   1.8789   2.0496   2.0525   2.0892   2.0906
     2.1816   2.1823   2.3133   2.3136   2.3365   2.3371   2.3685   2.3694
     2.4073   2.4084   2.4207   2.4215   2.5287   2.5305   2.6975   2.7012
     2.7552   2.7553   2.7751   2.7781   2.9719   2.9743   2.9915   2.9924
     3.0614   3.0616   3.1569   3.1608   3.2801   3.2823   3.3418   3.3431
     3.3753   3.3767   3.4715   3.4732   3.5740   3.5777   3.6253   3.6273
     3.6904   3.6933   3.7680   3.7709   3.8187   3.8265   3.8588   3.8622
     3.8932   3.8971   3.9218   3.9296   3.9577   3.9603   4.0765   4.0919
     4.1020   4.1048   4.2226   4.2357   4.2582   4.2695   4.2910   4.2960
     4.3063   4.3119   4.3164   4.3308   4.3913   4.4093   4.4207   4.4238
     4.4307   4.4348   4.5613   4.5642   4.5676   4.5983   4.6314   4.6316
     4.6508   4.6524   4.7637   4.7848   4.9384   4.9439   4.9445   4.9470
     4.9503   4.9620   5.0164   5.0324   5.0717   5.0721   5.0887   5.0929
     5.1383   5.1418   5.2214   5.2296   5.2968   5.2972   5.3091   5.3105
     5.3915   5.3927   5.4190   5.4345   5.4773   5.4784   5.5165   5.5288
     5.5431   5.5460   5.5503   5.5738   5.6613   5.6620   5.6981   5.7014
     5.7169   5.7208   5.7387   5.7466   5.7995   5.8009   5.8291   5.8350
     5.8485   5.8508   5.8645   5.8678   5.9314   5.9357   5.9570   5.9578
     5.9943   6.0022   6.0310   6.0456   6.1120   6.1159   6.1255   6.1309
     6.1329   6.1412   6.1517   6.1568   6.1662   6.1669   6.2958   6.2978
     6.2990   6.3123   6.3402   6.3422   6.3819   6.3857   6.4006   6.4011
     6.4164   6.4183   6.4493   6.4503   6.5699   6.5719   6.5751   6.5763
     6.6107   6.6157   6.6655   6.6756   6.8064   6.8076   6.8186   6.8219

          k =-0.5000-0.2887 0.0000 (108310 PWs)   bands (ev):

   -67.0460 -67.0453 -67.0244 -67.0238 -66.9984 -66.9974 -66.9963 -66.9958
   -66.9931 -66.9925 -66.9850 -66.9847 -66.9838 -66.9827 -66.9797 -66.9793
   -66.9671 -66.9667 -66.9665 -66.9644 -66.9619 -66.9606 -66.9597 -66.9579
   -66.7973 -66.7972 -66.7816 -66.7814 -66.7620 -66.7618 -66.7592 -66.7591
   -66.7543 -66.7541 -66.7511 -66.7509 -66.7007 -66.6964 -66.6863 -66.6846
   -66.6528 -66.6499 -66.6479 -66.6443 -66.6413 -66.6412 -66.6394 -66.6377
   -38.8508 -38.8496 -38.8272 -38.8258 -38.7224 -38.7210 -38.7167 -38.7162
   -38.6926 -38.6911 -38.6890 -38.6877 -38.6541 -38.6533 -38.6272 -38.6255
   -38.5915 -38.5898 -38.5813 -38.5806 -38.5764 -38.5746 -38.5561 -38.5546
   -38.5175 -38.5171 -38.5052 -38.5050 -38.4507 -38.4501 -38.4276 -38.4275
   -38.4218 -38.4216 -38.4117 -38.4113 -38.4002 -38.3999 -38.3889 -38.3886
   -38.3831 -38.3829 -38.3746 -38.3740 -38.3615 -38.3613 -38.3290 -38.3288
   -38.3287 -38.3286 -38.3239 -38.3234 -38.3205 -38.3204 -38.3127 -38.3106
   -38.3045 -38.3041 -38.2988 -38.2961 -38.2948 -38.2945 -38.2712 -38.2707
   -38.2546 -38.2515 -38.2458 -38.2445 -38.2432 -38.2427 -38.2404 -38.2396
   -38.2253 -38.2248 -38.2228 -38.2213 -38.1945 -38.1930 -38.1922 -38.1920
   -38.1884 -38.1881 -38.1749 -38.1743 -38.1578 -38.1570 -38.1393 -38.1383
   -38.1320 -38.1234 -38.1222 -38.1188 -38.1161 -38.1140 -38.1040 -38.1034
   -38.0985 -38.0971 -38.0824 -38.0813 -38.0780 -38.0753 -38.0538 -38.0529
   -38.0429 -38.0425 -38.0296 -38.0290 -38.0174 -38.0171 -38.0019 -38.0007
   -37.9989 -37.9983 -37.9933 -37.9921 -37.9780 -37.9776 -37.9750 -37.9740
   -37.9644 -37.9641 -37.9633 -37.9631 -37.9292 -37.9288 -37.9249 -37.9248
   -37.9146 -37.9145 -37.9055 -37.9053 -37.8811 -37.8754 -37.8722 -37.8713
   -37.7546 -37.7527 -37.7438 -37.7418 -37.7334 -37.7331 -37.7226 -37.7214
   -12.3198 -12.3190 -11.9473 -11.9468 -11.9334 -11.9321 -11.7014 -11.7011
   -11.5311 -11.5308 -11.4064 -11.4054 -11.3921 -11.3918 -11.3692 -11.3691
   -11.1862 -11.1840 -11.1679 -11.1678  -8.7727  -8.7725  -8.7380  -8.7378
    -7.9500  -2.9930  -2.9901  -2.9005  -2.8998  -2.8349  -2.8328  -2.8297
    -2.8294  -2.7071  -2.7067  -2.5902  -2.5894  -2.4262  -2.4242  -2.3606
    -2.3589  -2.3056  -2.3042  -2.1810  -2.1777  -2.0972  -2.0947  -1.9018
    -1.9011  -1.7616  -1.7580  -1.7162  -1.7135  -1.6314  -1.6266  -1.5059
    -1.5036  -1.4968  -1.4961  -1.3799  -1.3732  -1.3234  -1.3227  -1.3065
    -1.3064  -1.1938  -1.1909  -1.1102  -1.1085  -1.0996  -1.0905  -0.9706
    -0.9621  -0.9245  -0.9150  -0.8992  -0.8963  -0.8511  -0.7929  -0.7759
    -0.7305  -0.7183  -0.6807  -0.6766  -0.5434  -0.5426  -0.1766  -0.1721
     0.9622   0.9652   1.1480   1.1481   1.3782   1.3802   1.3996   1.3997
     1.4752   1.4753   1.4914   1.4921   1.6333   1.6353   1.6452   1.6478
     1.8715   1.8726   1.8781   1.8789   2.0497   2.0525   2.0892   2.0906
     2.1816   2.1823   2.3133   2.3136   2.3365   2.3371   2.3684   2.3694
     2.4073   2.4084   2.4206   2.4215   2.5287   2.5306   2.6976   2.7012
     2.7552   2.7553   2.7752   2.7781   2.9719   2.9743   2.9915   2.9923
     3.0614   3.0616   3.1568   3.1608   3.2801   3.2824   3.3417   3.3431
     3.3754   3.3767   3.4715   3.4732   3.5737   3.5777   3.6253   3.6272
     3.6905   3.6933   3.7682   3.7709   3.8185   3.8266   3.8591   3.8622
     3.8929   3.8971   3.9218   3.9301   3.9579   3.9601   4.0768   4.0923
     4.1020   4.1047   4.2218   4.2357   4.2595   4.2686   4.2907   4.2964
     4.3058   4.3116   4.3166   4.3309   4.3915   4.4093   4.4206   4.4237
     4.4306   4.4348   4.5617   4.5642   4.5679   4.5981   4.6314   4.6316
     4.6507   4.6523   4.7640   4.7848   4.9386   4.9435   4.9446   4.9472
     4.9503   4.9622   5.0164   5.0328   5.0717   5.0720   5.0886   5.0929
     5.1384   5.1420   5.2211   5.2289   5.2968   5.2972   5.3091   5.3105
     5.3915   5.3929   5.4190   5.4345   5.4773   5.4784   5.5165   5.5283
     5.5425   5.5459   5.5503   5.5743   5.6613   5.6621   5.6980   5.7015
     5.7169   5.7209   5.7385   5.7461   5.7996   5.8009   5.8295   5.8350
     5.8486   5.8508   5.8647   5.8680   5.9311   5.9354   5.9570   5.9578
     5.9944   6.0023   6.0306   6.0458   6.1120   6.1158   6.1256   6.1310
     6.1329   6.1412   6.1519   6.1569   6.1663   6.1668   6.2957   6.2978
     6.2990   6.3126   6.3400   6.3423   6.3819   6.3853   6.4007   6.4011
     6.4164   6.4182   6.4494   6.4504   6.5700   6.5718   6.5752   6.5764
     6.6107   6.6158   6.6655   6.6756   6.8063   6.8074   6.8188   6.8220

          k =-0.2500 0.4330 0.0000 (108308 PWs)   bands (ev):

   -67.0488 -67.0371 -67.0365 -67.0130 -67.0051 -67.0001 -66.9955 -66.9924
   -66.9914 -66.9906 -66.9900 -66.9844 -66.9842 -66.9808 -66.9798 -66.9760
   -66.9724 -66.9669 -66.9644 -66.9638 -66.9615 -66.9606 -66.9594 -66.9585
   -66.7996 -66.7907 -66.7906 -66.7740 -66.7673 -66.7612 -66.7580 -66.7578
   -66.7540 -66.7538 -66.7519 -66.7509 -66.7014 -66.6933 -66.6909 -66.6822
   -66.6528 -66.6510 -66.6460 -66.6444 -66.6429 -66.6405 -66.6392 -66.6378
   -38.8528 -38.8415 -38.8403 -38.8188 -38.7232 -38.7223 -38.7168 -38.7126
   -38.6982 -38.6896 -38.6870 -38.6864 -38.6545 -38.6458 -38.6451 -38.6059
   -38.5997 -38.5880 -38.5875 -38.5822 -38.5808 -38.5637 -38.5624 -38.5488
   -38.5136 -38.5133 -38.5121 -38.5012 -38.4769 -38.4300 -38.4298 -38.4295
   -38.4218 -38.4171 -38.4078 -38.4053 -38.4052 -38.3984 -38.3981 -38.3893
   -38.3829 -38.3759 -38.3757 -38.3750 -38.3577 -38.3519 -38.3517 -38.3306
   -38.3305 -38.3261 -38.3228 -38.3215 -38.3154 -38.3140 -38.3114 -38.3113
   -38.3080 -38.3030 -38.3008 -38.2949 -38.2934 -38.2914 -38.2910 -38.2573
   -38.2536 -38.2521 -38.2514 -38.2436 -38.2431 -38.2421 -38.2405 -38.2305
   -38.2272 -38.2253 -38.2244 -38.2235 -38.1981 -38.1935 -38.1930 -38.1845
   -38.1837 -38.1822 -38.1819 -38.1778 -38.1714 -38.1431 -38.1417 -38.1401
   -38.1298 -38.1275 -38.1209 -38.1198 -38.1185 -38.1118 -38.1100 -38.1064
   -38.0976 -38.0860 -38.0839 -38.0824 -38.0767 -38.0641 -38.0633 -38.0585
   -38.0436 -38.0317 -38.0313 -38.0277 -38.0174 -38.0169 -38.0093 -38.0023
   -38.0007 -37.9959 -37.9938 -37.9905 -37.9785 -37.9765 -37.9753 -37.9719
   -37.9687 -37.9666 -37.9587 -37.9585 -37.9335 -37.9333 -37.9218 -37.9209
   -37.9193 -37.9099 -37.9097 -37.9021 -37.8815 -37.8751 -37.8721 -37.8713
   -37.7532 -37.7517 -37.7484 -37.7396 -37.7370 -37.7270 -37.7267 -37.7198
   -12.3761 -12.1632 -12.1624 -11.9690 -11.8349 -11.8337 -11.7854 -11.6179
   -11.5927 -11.4818 -11.4630 -11.4623 -11.4470 -11.3819 -11.2700 -11.2683
   -11.2478 -11.2476 -11.1575 -11.1401  -8.7812  -8.7538  -8.7537  -8.7322
    -7.9500  -3.0423  -2.9449  -2.9438  -2.9277  -2.8160  -2.8149  -2.7740
    -2.7390  -2.6872  -2.6734  -2.6509  -2.6498  -2.6046  -2.4151  -2.2802
    -2.2789  -2.2669  -2.2419  -2.1891  -2.1872  -2.1451  -2.1430  -2.0168
    -1.8403  -1.8340  -1.7553  -1.7270  -1.6388  -1.5866  -1.5841  -1.5077
    -1.4832  -1.4639  -1.4357  -1.4292  -1.4259  -1.4245  -1.3656  -1.2480
    -1.2464  -1.2015  -1.2010  -1.1787  -1.1337  -1.0234  -1.0022  -0.9942
    -0.9521  -0.9371  -0.9254  -0.8983  -0.8870  -0.8680  -0.8282  -0.8128
    -0.7831  -0.7166  -0.6214  -0.6112  -0.6102  -0.5149  -0.1764  -0.1724
     0.8972   1.0799   1.0808   1.1806   1.3654   1.3817   1.3827   1.3838
     1.4273   1.5087   1.5092   1.5359   1.6025   1.6213   1.6233   1.6802
     1.7987   1.9170   1.9185   2.0058   2.0067   2.0699   2.0707   2.1288
     2.1363   2.1980   2.1989   2.2301   2.3045   2.3099   2.3449   2.3453
     2.3972   2.4460   2.5127   2.5382   2.5398   2.6244   2.6248   2.7407
     2.7433   2.7462   2.7770   2.7832   2.8800   2.8833   2.8852   2.9513
     3.1324   3.1961   3.2401   3.2442   3.2874   3.2885   3.2951   3.3811
     3.3861   3.3873   3.4024   3.5107   3.5305   3.5313   3.6033   3.6587
     3.6744   3.7029   3.7076   3.7392   3.7415   3.7976   3.8208   3.8347
     3.9703   3.9845   4.0018   4.0130   4.0202   4.0286   4.0347   4.0665
     4.0863   4.1372   4.1526   4.1846   4.1924   4.2437   4.2530   4.2813
     4.3104   4.3192   4.3457   4.3554   4.3853   4.3966   4.4144   4.4230
     4.5111   4.5143   4.5367   4.5481   4.5564   4.5606   4.5797   4.6268
     4.6804   4.8132   4.8146   4.8337   4.8379   4.8448   4.8587   4.8631
     4.9065   4.9246   4.9939   5.0054   5.0743   5.0845   5.1149   5.1189
     5.1293   5.2276   5.2471   5.2666   5.2722   5.3010   5.3359   5.3781
     5.3876   5.3885   5.4056   5.4360   5.4546   5.4679   5.4832   5.5407
     5.5519   5.5724   5.5859   5.6649   5.6822   5.6846   5.6867   5.6939
     5.7273   5.7290   5.7320   5.7397   5.7520   5.8174   5.8208   5.8282
     5.8326   5.8458   5.8633   5.8791   5.8866   5.9209   5.9313   5.9822
     5.9876   5.9953   6.0225   6.0259   6.0474   6.0526   6.0620   6.1314
     6.1333   6.1356   6.1670   6.1719   6.1916   6.2243   6.2461   6.2529
     6.2932   6.3039   6.3272   6.3277   6.3834   6.4152   6.4198   6.4538
     6.4554   6.4578   6.5189   6.5194   6.5481   6.5732   6.6060   6.6258
     6.6293   6.6369   6.6708   6.6797   6.6865   6.7502   6.8035   6.8070

          k = 0.5000-0.0000 0.0000 (108308 PWs)   bands (ev):

   -67.0488 -67.0368 -67.0368 -67.0133 -67.0047 -67.0001 -66.9957 -66.9921
   -66.9917 -66.9904 -66.9902 -66.9844 -66.9842 -66.9811 -66.9794 -66.9763
   -66.9718 -66.9673 -66.9640 -66.9638 -66.9615 -66.9611 -66.9595 -66.9581
   -66.7996 -66.7908 -66.7905 -66.7740 -66.7675 -66.7611 -66.7580 -66.7578
   -66.7541 -66.7537 -66.7518 -66.7511 -66.7012 -66.6944 -66.6898 -66.6824
   -66.6530 -66.6503 -66.6464 -66.6459 -66.6408 -66.6405 -66.6398 -66.6380
   -38.8528 -38.8411 -38.8407 -38.8188 -38.7227 -38.7224 -38.7175 -38.7121
   -38.6976 -38.6900 -38.6872 -38.6866 -38.6548 -38.6454 -38.6450 -38.6054
   -38.5997 -38.5881 -38.5876 -38.5826 -38.5805 -38.5632 -38.5626 -38.5492
[...]
     6.6458   6.6861   6.7117   6.7196   6.7289   6.7848   6.8391   6.8446

          k = 0.5000-0.0000 0.0000 (108308 PWs)   bands (ev):

   -67.0193 -67.0075 -67.0073 -66.9850 -66.9760 -66.9690 -66.9680 -66.9636
   -66.9627 -66.9601 -66.9595 -66.9579 -66.9573 -66.9544 -66.9523 -66.9445
   -66.9385 -66.9340 -66.9303 -66.9303 -66.9279 -66.9263 -66.9256 -66.9224
   -66.7768 -66.7689 -66.7687 -66.7579 -66.7312 -66.7273 -66.7262 -66.7259
   -66.7214 -66.7212 -66.7205 -66.7182 -66.6736 -66.6640 -66.6607 -66.6526
   -66.6292 -66.6281 -66.6139 -66.6117 -66.6083 -66.6067 -66.6047 -66.6044
   -38.8117 -38.7987 -38.7984 -38.7774 -38.6850 -38.6847 -38.6797 -38.6722
   -38.6622 -38.6595 -38.6571 -38.6554 -38.6240 -38.6107 -38.6096 -38.5735
   -38.5684 -38.5623 -38.5620 -38.5590 -38.5474 -38.5437 -38.5433 -38.5393
   -38.4829 -38.4821 -38.4820 -38.4757 -38.4668 -38.4600 -38.4587 -38.4583
   -38.4461 -38.3856 -38.3826 -38.3815 -38.3808 -38.3682 -38.3680 -38.3566
   -38.3538 -38.3501 -38.3490 -38.3453 -38.3290 -38.3212 -38.3210 -38.3169
   -38.3168 -38.3124 -38.3101 -38.3077 -38.2976 -38.2972 -38.2909 -38.2891
   -38.2820 -38.2797 -38.2748 -38.2646 -38.2632 -38.2603 -38.2602 -38.2326
   -38.2311 -38.2284 -38.2270 -38.2263 -38.2157 -38.2157 -38.2117 -38.1982
   -38.1961 -38.1950 -38.1942 -38.1898 -38.1712 -38.1650 -38.1636 -38.1562
   -38.1542 -38.1532 -38.1529 -38.1461 -38.1419 -38.1220 -38.1204 -38.1168
   -38.1017 -38.0950 -38.0837 -38.0829 -38.0777 -38.0753 -38.0722 -38.0698
   -38.0520 -38.0446 -38.0428 -38.0376 -38.0361 -38.0243 -38.0231 -38.0225
   -38.0069 -37.9932 -37.9887 -37.9871 -37.9768 -37.9754 -37.9694 -37.9679
   -37.9633 -37.9633 -37.9602 -37.9511 -37.9454 -37.9431 -37.9417 -37.9410
   -37.9381 -37.9380 -37.9331 -37.9328 -37.8950 -37.8947 -37.8888 -37.8840
   -37.8820 -37.8729 -37.8728 -37.8647 -37.8514 -37.8475 -37.8454 -37.8443
   -37.7261 -37.7246 -37.7171 -37.7079 -37.7012 -37.6936 -37.6890 -37.6861
   -12.2981 -12.0844 -12.0831 -11.8979 -11.7546 -11.7540 -11.7162 -11.5508
   -11.4726 -11.4145 -11.3925 -11.3921 -11.3301 -11.3206 -11.2049 -11.2038
   -11.1150 -11.1145 -11.0927 -10.9973  -9.2788  -9.2297  -9.2290  -9.1897
    -7.5013  -2.9752  -2.8738  -2.8692  -2.8544  -2.7385  -2.7373  -2.6873
    -2.6581  -2.6019  -2.5975  -2.5673  -2.5663  -2.5209  -2.3458  -2.2010
    -2.1966  -2.1950  -2.1467  -2.1099  -2.1094  -2.0599  -2.0588  -1.9343
    -1.7481  -1.7467  -1.6660  -1.6473  -1.5792  -1.5102  -1.5065  -1.4363
    -1.3896  -1.3844  -1.3573  -1.3567  -1.3547  -1.3416  -1.2779  -1.1620
    -1.1612  -1.1173  -1.1167  -1.0863  -1.0382  -0.9346  -0.9299  -0.9243
    -0.8716  -0.8560  -0.8375  -0.8203  -0.8035  -0.8005  -0.7105  -0.7059
    -0.6362  -0.5305  -0.5167  -0.5132  -0.3734  -0.1458   0.1103   0.1129
     0.7255   0.7809   0.7820   0.8193   1.0176   1.0194   1.0653   1.0683
     1.0685   1.1268   1.1332   1.1333   1.3311   1.4673   1.4762   1.6731
     1.8270   1.9320   1.9374   1.9647   2.0356   2.0389   2.0495   2.0517
     2.1396   2.2189   2.2199   2.2872   2.3615   2.3616   2.3962   2.3972
     2.4364   2.4966   2.5526   2.5654   2.5664   2.6557   2.6582   2.7100
     2.7808   2.7821   2.7949   2.8186   2.8944   2.8948   2.9101   2.9985
     3.1397   3.2309   3.2737   3.2782   3.3193   3.3212   3.3400   3.4154
     3.4212   3.4274   3.4359   3.5254   3.5263   3.5400   3.6275   3.6949
     3.6974   3.7297   3.7312   3.7588   3.7641   3.8309   3.8365   3.8471
     4.0104   4.0112   4.0200   4.0441   4.0467   4.0591   4.0647   4.0945
     4.1216   4.1722   4.1958   4.2096   4.2125   4.2716   4.2785   4.2822
     4.3142   4.3199   4.3673   4.3952   4.4121   4.4170   4.4354   4.4391
     4.5308   4.5318   4.5551   4.5621   4.5743   4.5874   4.5986   4.6449
     4.6713   4.8143   4.8360   4.8381   4.8731   4.8883   4.9013   4.9117
     4.9498   5.0095   5.0199   5.0296   5.1069   5.1113   5.1526   5.1682
     5.1700   5.2365   5.2705   5.2971   5.3209   5.3265   5.3584   5.4070
     5.4213   5.4228   5.4283   5.4637   5.4766   5.4960   5.4975   5.5789
     5.5822   5.5958   5.6169   5.7095   5.7127   5.7147   5.7151   5.7266
     5.7596   5.7613   5.7671   5.7837   5.7969   5.8408   5.8476   5.8548
     5.8587   5.8747   5.8856   5.9062   5.9101   5.9423   5.9701   6.0151
     6.0222   6.0430   6.0557   6.0634   6.0838   6.0883   6.1060   6.1694
     6.1730   6.1905   6.2176   6.2190   6.2508   6.2796   6.2806   6.2992
     6.3344   6.3411   6.3506   6.3542   6.4389   6.4517   6.4536   6.4940
     6.4984   6.5013   6.5462   6.5462   6.5852   6.6220   6.6399   6.6449
     6.6476   6.6895   6.7133   6.7167   6.7274   6.7863   6.8393   6.8413

     the Fermi energy is     5.1781 ev

!    total energy              =  -12616.46713468 Ry
     total all-electron energy =   -103594.970941 Ry
     estimated scf accuracy    <          2.9E-11 Ry
     smearing contrib. (-TS)   =       0.00934792 Ry
     internal energy E=F+TS    =  -12616.47648260 Ry

     The total energy is F=E-TS. E is the sum of the following terms:
     one-electron contribution =  -67078.49443934 Ry
     hartree contribution      =   33652.49748826 Ry
     xc contribution           =   -1216.03375923 Ry
     ewald contribution        =   25787.91774500 Ry
     DFT-D3 Dispersion         =      -1.08097935 Ry
     one-center paw contrib.   =   -3761.28253794 Ry

     convergence has been achieved in  39 iterations

     negative rho (up, down):  1.782E-04 0.000E+00

     Forces acting on atoms (cartesian axes, Ry/au):

     atom    1 type  1   force =    -0.00005693   -0.00024265    0.00006515
     atom    2 type  1   force =    -0.00008293   -0.00007844   -0.00003634
     atom    3 type  1   force =     0.00010772    0.00005029    0.00014084
     atom    4 type  1   force =    -0.00012704   -0.00008417   -0.00012335
     atom    5 type  1   force =    -0.00003998    0.00014697    0.00005794
     atom    6 type  1   force =    -0.00000387    0.00009395   -0.00016017
     atom    7 type  2   force =    -0.00018970    0.00025293    0.00025119
     atom    8 type  2   force =    -0.00001872    0.00002072    0.00043730
     atom    9 type  2   force =    -0.00005350    0.00001361    0.00055851
     atom   10 type  1   force =     0.00010067    0.00024977   -0.00016516
     atom   11 type  1   force =    -0.00006207   -0.00001992    0.00019177
     atom   12 type  1   force =     0.00013204   -0.00018204   -0.00040596
     atom   13 type  1   force =    -0.00002331   -0.00028971   -0.00019861
     atom   14 type  1   force =    -0.00022438   -0.00031744    0.00022009
     atom   15 type  1   force =     0.00006051   -0.00002241    0.00037878
     atom   16 type  2   force =     0.00008155   -0.00020463   -0.00047654
     atom   17 type  2   force =     0.00017627    0.00006344   -0.00012522
     atom   18 type  2   force =     0.00012425   -0.00021811   -0.00048693
     atom   19 type  1   force =     0.00007268   -0.00016658   -0.00011425
     atom   20 type  1   force =    -0.00013359   -0.00000467   -0.00003151
     atom   21 type  1   force =    -0.00006102    0.00024187    0.00005971
     atom   22 type  1   force =    -0.00003708   -0.00015503    0.00005687
     atom   23 type  1   force =    -0.00003801    0.00008778   -0.00029934
     atom   24 type  1   force =     0.00000175    0.00000019    0.00003432
     atom   25 type  2   force =     0.00008485   -0.00000267    0.00013245
     atom   26 type  2   force =    -0.00005223   -0.00001875    0.00056423
     atom   27 type  2   force =    -0.00007468    0.00001859    0.00025683
     atom   28 type  1   force =     0.00011481    0.00000558   -0.00001033
     atom   29 type  1   force =     0.00002258    0.00000095   -0.00048227
     atom   30 type  1   force =     0.00009781   -0.00025131   -0.00016137
     atom   31 type  1   force =    -0.00022695    0.00031990    0.00021621
     atom   32 type  1   force =    -0.00004652    0.00007948    0.00042113
     atom   33 type  1   force =    -0.00030542   -0.00000075    0.00045522
     atom   34 type  2   force =    -0.00014573    0.00000253   -0.00055966
     atom   35 type  2   force =     0.00011668    0.00021964   -0.00049150
     atom   36 type  2   force =     0.00006724   -0.00001087    0.00011288
     atom   37 type  1   force =     0.00024948   -0.00026347    0.00010762
     atom   38 type  1   force =    -0.00008582    0.00007791   -0.00002883
     atom   39 type  1   force =     0.00007419    0.00016580   -0.00010857
     atom   40 type  1   force =    -0.00003395   -0.00009630   -0.00029719
     atom   41 type  1   force =    -0.00018183    0.00002179   -0.00025353
     atom   42 type  1   force =    -0.00000189   -0.00010463   -0.00014986
     atom   43 type  2   force =    -0.00017833   -0.00026459    0.00025182
     atom   44 type  2   force =    -0.00007363   -0.00002436    0.00026353
     atom   45 type  2   force =    -0.00004320   -0.00000301    0.00010485
     atom   46 type  1   force =     0.00016195   -0.00010940   -0.00026239
     atom   47 type  1   force =    -0.00005922    0.00003049    0.00018296
     atom   48 type  1   force =     0.00011845    0.00000948   -0.00000486
     atom   49 type  1   force =    -0.00004867   -0.00008029    0.00041453
     atom   50 type  1   force =    -0.00007434    0.00023177    0.00019721
     atom   51 type  1   force =     0.00005642    0.00002001    0.00037462
     atom   52 type  2   force =     0.00007802    0.00020280   -0.00047902
     atom   53 type  2   force =     0.00005857    0.00001483    0.00010407
     atom   54 type  2   force =    -0.00008075    0.00000854    0.00022313
     atom   55 type  1   force =     0.00010889   -0.00006171    0.00014699
     atom   56 type  1   force =     0.00003463   -0.00000578   -0.00025249
     atom   57 type  1   force =     0.00025806    0.00026258    0.00010540
     atom   58 type  1   force =    -0.00018809   -0.00002668   -0.00024681
     atom   59 type  1   force =    -0.00012631    0.00008030   -0.00011960
     atom   60 type  1   force =    -0.00012239   -0.00000159   -0.00021390
     atom   61 type  2   force =    -0.00012773   -0.00000098    0.00011003
     atom   62 type  2   force =    -0.00004175   -0.00000266    0.00010571
     atom   63 type  2   force =    -0.00001949   -0.00002765    0.00044964
     atom   64 type  1   force =     0.00013957    0.00017714   -0.00041669
     atom   65 type  1   force =     0.00076952   -0.00000155   -0.00038131
     atom   66 type  1   force =     0.00016367    0.00011476   -0.00025444
     atom   67 type  1   force =    -0.00006605   -0.00022916    0.00019736
     atom   68 type  1   force =    -0.00002313    0.00028748   -0.00019549
     atom   69 type  1   force =     0.00001190   -0.00000044    0.00031322
     atom   70 type  2   force =     0.00009059    0.00000399   -0.00063827
     atom   71 type  2   force =    -0.00008069   -0.00001213    0.00022529
     atom   72 type  2   force =     0.00018519   -0.00006074   -0.00013676
     atom   73 type  3   force =     0.00002671   -0.00004860    0.00049625
     atom   74 type  4   force =     0.00017156    0.00012985    0.00045920
     atom   75 type  4   force =    -0.00014386   -0.00040269   -0.00033845
     atom   76 type  4   force =     0.00021991    0.00018758    0.00014079
     atom   77 type  4   force =    -0.00053393    0.00020331   -0.00047864

     Total force =     0.003222     Total SCF correction =     0.000025
     Energy error            =      2.8E-05 Ry
     Gradient error          =      7.7E-04 Ry/Bohr

     bfgs converged in  28 scf cycles and  27 bfgs steps
     (criteria: energy <  1.0E-04 Ry, force <  1.0E-03 Ry/Bohr)

     End of BFGS Geometry Optimization

     Final energy             =  -12616.4671346809 Ry

     File tmp/CH4-H13_Rot0_ontop_/CH4-H13_Rot0_ontop_.bfgs deleted, as requested
Begin final coordinates

ATOMIC_POSITIONS (angstrom)
Cr              -1.5905445103        2.7666777991        8.2083371976
Cr               3.1947764765       -0.0003022286        8.2116500322
Cr               0.7802639603        1.3518350062        8.2091534701
Cr               1.6354981034        2.8232010923        6.0803503898
Cr              -0.7425558300        1.2897084395        6.0797665559
Cr               1.4948630755       -0.0010205527        6.0826791445
N                0.0042459788       -0.0034330023        5.0389962604
N                2.3778511093        1.3712987984        7.0683857488
N                0.0037278061        2.7439822949        7.0618632991
Cr              -1.6549693899        2.8520472739       12.4835686760
Cr               3.2921805911       -0.0009190840       12.4832115517
Cr               0.7217115263        1.2479850663       12.4793668759
Cr               1.5901634601        2.7676640750       10.4169505987
Cr              -0.7792049649        1.3561269105       10.4064960352
Cr               1.5619367294       -0.0001645346       10.4042383518
N                0.0012116474        0.0033613307        9.2945438229
N                2.3725999447        1.3718010765       11.5261152185
N                0.0019740891        2.7460078244       11.5415770323
Cr              -3.9682446720        6.8820096895        8.2124493932
Cr               0.8198270324        4.1145639963        8.2088380391
Cr              -1.5904728539        5.4623275399        8.2084071855
Cr              -0.7426175962        6.9394609513        6.0798269249
Cr              -3.1202602022        5.4054958401        6.0856244401
Cr              -0.8822097724        4.1145705741        6.0762397586
N               -2.3775307958        4.1146148095        5.0397269434
N                0.0037464162        5.4851622816        7.0618365519
N               -2.3715574642        6.8570469020        7.0681945945
Cr              -4.0194172466        6.9628473527       12.4859563858
Cr               0.9001745160        4.1143265241       12.5235186894
Cr              -1.6549870885        5.3768205195       12.4832757315
Cr              -0.7790074057        6.8728055896       10.4065119991
Cr              -3.1514359592        5.4688931455       10.3996338377
Cr              -0.8071966198        4.1144071727       10.4097652138
N               -2.3667848871        4.1144657491        9.2957143482
N                0.0020834616        5.4827697836       11.5416013178
N               -2.3749420856        6.8595763657       11.5223914220
Cr               3.1536781708        2.7660234205        8.2131669680
Cr               7.9461078388       -0.0002452448        8.2114783827
Cr               5.5345550159        1.3470087373        8.2124267753
Cr               6.3824588830        2.8236929391        6.0855611322
Cr               4.0095309449        1.2921562325        6.0843388931
Cr               6.2461559685        0.0005703712        6.0825000893
N                4.7554016029        0.0030309339        5.0389942401
N                7.1311736648        1.3720562272        7.0680050549
N                4.7529675390        2.7424772223        7.0743217435
Cr               3.1198954410        2.8396817823       12.4747429821
Cr               8.0439756217        0.0000887059       12.4832789777
Cr               5.4831428747        1.2660473100       12.4859372638
Cr               6.3514656832        2.7599875141       10.3996994737
Cr               3.9697770786        1.3514553037       10.4054130394
Cr               6.3133838332       -0.0005373897       10.4044589011
N                4.7527646793       -0.0039811202        9.2945715412
N                7.1278026837        1.3692565097       11.5227617977
N                4.7584416913        2.7431967235       11.5178156005
Cr               0.7803592509        6.8773218034        8.2090455962
Cr               5.5702597077        4.1145797813        8.2156586909
Cr               3.1535609132        5.4630792525        8.2130974848
Cr               4.0096235175        6.9370026060        6.0842167424
Cr               1.6354795463        5.4058769680        6.0802442246
Cr               3.8727753999        4.1145468002        6.0858873897
N                2.3841361450        4.1145062125        5.0392567006
N                4.7529231582        5.4866358650        7.0742811301
N                2.3778633166        6.8578398509        7.0681136593
Cr               0.7215915264        6.9808711554       12.4795381452
Cr               5.6748352489        4.1145643030       12.4822382941
Cr               3.1198040078        5.3890384120       12.4750186212
Cr               3.9696150539        6.8775204433       10.4054017294
Cr               1.5902086131        5.4613536182       10.4169726854
Cr               3.9402068549        4.1145235563       10.4017755278
N                2.3722602687        4.1145453295        9.2994617433
N                4.7582575527        5.4858517305       11.5178867786
N                2.3725347092        6.8570721723       11.5264575649
C                0.8830782379        4.1185659939       15.8838309689
H                0.9413931471        4.1376803409       14.7760446432
H                0.8691749354        3.0733538826       16.2087906254
H                1.7672262046        4.6331749980       16.2738427395
H               -0.0324879510        4.6329241736       16.1921251700
End final coordinates



     Writing all to output data dir tmp/CH4-H13_Rot0_ontop_/CH4-H13_Rot0_ontop_.save/ :
     XML data file, charge density, pseudopotentials, collected wavefunctions
 
     init_run     :     18.57s CPU     19.45s WALL (       1 calls)
     electrons    :  47449.40s CPU  48754.93s WALL (      28 calls)
     update_pot   :     34.19s CPU     35.80s WALL (      27 calls)
     forces       :    284.25s CPU    294.81s WALL (      28 calls)
     force_dftd3  :      6.24s CPU      6.56s WALL (      28 calls)

     Called by init_run:
     wfcinit      :     14.30s CPU     14.75s WALL (       1 calls)
     potinit      :      1.04s CPU      1.18s WALL (       1 calls)
     hinit0       :      0.34s CPU      0.44s WALL (       1 calls)

     Called by electrons:
     c_bands      :  38939.42s CPU  39775.92s WALL (    1213 calls)
     sum_band     :   6705.91s CPU   6949.53s WALL (    1213 calls)
     v_of_rho     :    702.04s CPU    751.70s WALL (    1227 calls)
     newd         :    525.32s CPU    680.68s WALL (    1227 calls)
     PAW_pot      :    443.19s CPU    449.49s WALL (    1254 calls)
     mix_rho      :     99.26s CPU    106.85s WALL (    1213 calls)
     energy_dftd3 :      3.27s CPU      3.30s WALL (      28 calls)

     Called by c_bands:
     init_us_2    :    684.21s CPU    693.80s WALL (    7446 calls)
     cegterg      :  36465.93s CPU  37279.33s WALL (    3639 calls)

     Called by *egterg:
     cdiaghg      :   1263.87s CPU   1278.41s WALL (   12097 calls)
     h_psi        :  18070.21s CPU  18427.32s WALL (   12223 calls)
     s_psi        :   4229.74s CPU   4273.16s WALL (   12223 calls)
     g_psi        :     80.76s CPU     81.79s WALL (    8581 calls)

     Called by h_psi:
     h_psi:calbec :   4286.00s CPU   4331.35s WALL (   12223 calls)
     vloc_psi     :   9402.80s CPU   9567.32s WALL (   12223 calls)
                                        0.00s GPU  (   12223 calls)
     add_vuspsi   :   4240.84s CPU   4285.60s WALL (   12223 calls)

     General routines
     calbec       :   6510.57s CPU   6577.93s WALL (   16279 calls)
     fft          :    566.88s CPU    611.22s WALL (   16244 calls)
     ffts         :      6.89s CPU      7.89s WALL (    2440 calls)
     fftw         :   9274.92s CPU   9427.50s WALL ( 9072718 calls)
     interpolate  :     41.24s CPU     45.61s WALL (    1227 calls)
 
     Parallel routines
 
     PWSCF        :     13h17m CPU     13h39m WALL

 
   This run was terminated on:  11:22:52   2Jun2026            

=------------------------------------------------------------------------------=
   JOB DONE.
=------------------------------------------------------------------------------=
