
     Program PWSCF v.7.5 starts on  2Jun2026 at 13:36:46 

     This program is part of the open-source Quantum ESPRESSO suite
     for quantum simulation of materials; please cite
         "P. Giannozzi et al., J. Phys.:Condens. Matter 21 395502 (2009);
         "P. Giannozzi et al., J. Phys.:Condens. Matter 29 465901 (2017);
         "P. Giannozzi et al., J. Chem. Phys. 152 154105 (2020);
          URL http://www.quantum-espresso.org", 
     in publications or presentations arising from this work. More details at
     http://www.quantum-espresso.org/quote

     Parallel version (MPI & OpenMP), running on      64 processor cores
     Number of MPI processes:                64
     Threads/MPI process:                     1

     MPI processes distributed on     1 nodes
     464673 MiB available memory on the printing compute node when the environment starts
 
     Reading input from generated_inputs/adsorcion/pw-CH4-H13_Rot30_ontop_.in
Warning: card &CELL ignored

     Current dimensions of program PWSCF are:
     Max number of different atomic species (ntypx) = 10
     Max number of k-points (npk) =  40000
     Max angular momentum in pseudopotentials (lmaxx) =  4
     file Cr.pbe-spn-kjpaw_psl.1.0.0.UPF: wavefunction(s)  3S 3P 3D renormalized
     file N.pbe-n-kjpaw_psl.1.0.0.UPF: wavefunction(s)  2S renormalized
     file C.pbe-n-kjpaw_psl.1.0.0.UPF: wavefunction(s)  2S 2P renormalized
     file H.pbe-kjpaw_psl.1.0.0.UPF: wavefunction(s)  1S renormalized
 
     K-points division:     npool     =       4
     R & G space division:  proc/nbgrp/npool/nimage =      16
     Subspace diagonalization in iterative solution of the eigenvalue problem:
     one sub-group per band group will be used
     scalapack distributed-memory algorithm (size of sub-group:  4*  4 procs)

 
     Parallelization info
     --------------------
     sticks:   dense  smooth     PW     G-vecs:    dense   smooth      PW
     Min        1166     388    102               281408    54158    7274
     Max        1167     389    103               281417    54165    7281
     Sum       18661    6217   1639              4502593   866593  116429
 
     Using Slab Decomposition
 


     bravais-lattice index     =            0
     lattice parameter (alat)  =      17.9576  a.u.
     unit-cell volume          =   10952.5767 (a.u.)^3
     number of atoms/cell      =           77
     number of atomic types    =            4
     number of electrons       =       800.00
     number of Kohn-Sham states=          480
     kinetic-energy cutoff     =      70.0000  Ry
     charge density cutoff     =     840.0000  Ry
     scf convergence threshold =      1.0E-08
     mixing beta               =       0.2000
     number of iterations used =            8  plain     mixing
     energy convergence thresh.=      1.0E-04
     force convergence thresh. =      1.0E-03
     Exchange-correlation= SLA  PW   PBX  PBC
                           (   1   4   3   4   0   0   0)
     nstep                     =          200


     celldm(1)=  17.957575  celldm(2)=   0.000000  celldm(3)=   0.000000
     celldm(4)=   0.000000  celldm(5)=   0.000000  celldm(6)=   0.000000

     crystal axes: (cart. coord. in units of alat)
               a(1) = (   1.000000   0.000000   0.000000 )  
               a(2) = (  -0.500000   0.866025   0.000000 )  
               a(3) = (   0.000000   0.000000   2.183951 )  

     reciprocal axes: (cart. coord. in units 2 pi/alat)
               b(1) = (  1.000000  0.577351  0.000000 )  
               b(2) = (  0.000000  1.154701  0.000000 )  
               b(3) = (  0.000000  0.000000  0.457886 )  


     PseudoPot. # 1 for Cr read from file:
     pseudo/Cr.pbe-spn-kjpaw_psl.1.0.0.UPF
     MD5 check sum: 198f1a2427a48552563eee314eba32ba
     Pseudo is Projector augmented-wave + core cor, Zval = 14.0
     Generated using &quot;atomic&quot; code by A. Dal Corso  v.6.3
     Shape of augmentation charge: PSQ
     Using radial grid of 1183 points,  6 beta functions with: 
                l(1) =   0
                l(2) =   0
                l(3) =   1
                l(4) =   1
                l(5) =   2
                l(6) =   2
     Q(r) pseudized with 0 coefficients 


     PseudoPot. # 2 for N  read from file:
     pseudo/N.pbe-n-kjpaw_psl.1.0.0.UPF
     MD5 check sum: 14c48229446f9f2d411169a3abcbc3fa
     Pseudo is Projector augmented-wave + core cor, Zval =  5.0
     Generated using &quot;atomic&quot; code by A. Dal Corso  v.6.3
     Shape of augmentation charge: PSQ
     Using radial grid of 1085 points,  4 beta functions with: 
                l(1) =   0
                l(2) =   0
                l(3) =   1
                l(4) =   1
     Q(r) pseudized with 0 coefficients 


     PseudoPot. # 3 for C  read from file:
     pseudo/C.pbe-n-kjpaw_psl.1.0.0.UPF
     MD5 check sum: 5f16ad9a65e90284d1d834d4ab3b0f7d
     Pseudo is Projector augmented-wave + core cor, Zval =  4.0
     Generated using &quot;atomic&quot; code by A. Dal Corso  v.6.3
     Shape of augmentation charge: PSQ
     Using radial grid of 1073 points,  4 beta functions with: 
                l(1) =   0
                l(2) =   0
                l(3) =   1
                l(4) =   1
     Q(r) pseudized with 0 coefficients 


     PseudoPot. # 4 for H  read from file:
     pseudo/H.pbe-kjpaw_psl.1.0.0.UPF
     MD5 check sum: d81a744832360e4a8af0b0b5b123bc2a
     Pseudo is Projector augmented-wave, Zval =  1.0
     Generated using &quot;atomic&quot; code by A. Dal Corso  v.6.3MaX
     Shape of augmentation charge: PSQ
     Using radial grid of  929 points,  2 beta functions with: 
                l(1) =   0
                l(2) =   0
     Q(r) pseudized with 0 coefficients 


     atomic species   valence    mass     pseudopotential
     Cr               14.00    51.99610     Cr( 1.00)
     N                 5.00    14.00670     N ( 1.00)
     C                 4.00    12.01100     C ( 1.00)
     H                 1.00     1.00800     H ( 1.00)

     No symmetry found



   Cartesian axes

     site n.     atom                  positions (alat units)
         1        Cr     tau(   1) = (  -0.1681591   0.2912601   0.8673998  )
         2        Cr     tau(   2) = (   0.3363182   0.0000000   0.8673998  )
         3        Cr     tau(   3) = (   0.0818405   0.1417518   0.8673993  )
         4        Cr     tau(   4) = (   0.1684970   0.2918454   0.6425759  )
         5        Cr     tau(   5) = (  -0.0815030   0.1411673   0.6425759  )
         6        Cr     tau(   6) = (   0.1630059   0.0000000   0.6425759  )
         7        N      tau(   7) = (   0.0000000   0.0000000   0.5261641  )
         8        N      tau(   8) = (   0.2500000   0.1443376   0.7485579  )
         9        N      tau(   9) = (   0.0000000   0.2886752   0.7485579  )
        10        Cr     tau(  10) = (  -0.1730001   0.2996450   1.3148727  )
        11        Cr     tau(  11) = (   0.3460003   0.0000000   1.3148727  )
        12        Cr     tau(  12) = (   0.0770029   0.1333729   1.3148745  )
        13        Cr     tau(  13) = (   0.1677092   0.2904808   1.0968932  )
        14        Cr     tau(  14) = (  -0.0822901   0.1425306   1.0968938  )
        15        Cr     tau(  15) = (   0.1645802   0.0000000   1.0968938  )
        16        N      tau(  16) = (   0.0000000   0.0000000   0.9808490  )
        17        N      tau(  17) = (   0.2500004   0.1443372   1.2145625  )
        18        N      tau(  18) = (  -0.0000005   0.2886753   1.2145625  )
        19        Cr     tau(  19) = (  -0.4181595   0.7242736   0.8673993  )
        20        Cr     tau(  20) = (   0.0863184   0.4330126   0.8674001  )
        21        Cr     tau(  21) = (  -0.1681593   0.5747652   0.8674001  )
        22        Cr     tau(  22) = (  -0.0815030   0.7248581   0.6425759  )
        23        Cr     tau(  23) = (  -0.3315030   0.5741800   0.6425759  )
        24        Cr     tau(  24) = (  -0.0869941   0.4330127   0.6425759  )
        25        N      tau(  25) = (  -0.2500000   0.4330127   0.5261641  )
        26        N      tau(  26) = (   0.0000000   0.5773503   0.7485581  )
        27        N      tau(  27) = (  -0.2500000   0.7216878   0.7485579  )
        28        Cr     tau(  28) = (  -0.4229971   0.7326525   1.3148745  )
        29        Cr     tau(  29) = (   0.0959968   0.4330121   1.3148749  )
        30        Cr     tau(  30) = (  -0.1729989   0.5663837   1.3148749  )
        31        Cr     tau(  31) = (  -0.0822898   0.7234940   1.0968932  )
        32        Cr     tau(  32) = (  -0.3322908   0.5755446   1.0968932  )
        33        Cr     tau(  33) = (  -0.0854193   0.4330133   1.0968932  )
        34        N      tau(  34) = (  -0.2500001   0.4330128   0.9808490  )
        35        N      tau(  35) = (   0.0000000   0.5773503   1.2145635  )
        36        N      tau(  36) = (  -0.2499996   0.7216882   1.2145625  )
        37        Cr     tau(  37) = (   0.3318407   0.2912602   0.8674001  )
        38        Cr     tau(  38) = (   0.8363191   0.0000000   0.8673993  )
        39        Cr     tau(  39) = (   0.5818409   0.1417524   0.8674001  )
        40        Cr     tau(  40) = (   0.6684970   0.2918454   0.6425759  )
        41        Cr     tau(  41) = (   0.4184970   0.1411673   0.6425759  )
        42        Cr     tau(  42) = (   0.6630059   0.0000000   0.6425759  )
        43        N      tau(  43) = (   0.5000000   0.0000000   0.5261641  )
        44        N      tau(  44) = (   0.7500000   0.1443376   0.7485579  )
        45        N      tau(  45) = (   0.5000000   0.2886751   0.7485581  )
        46        Cr     tau(  46) = (   0.3270011   0.2996417   1.3148749  )
        47        Cr     tau(  47) = (   0.8459942   0.0000000   1.3148745  )
        48        Cr     tau(  48) = (   0.5770021   0.1333704   1.3148749  )
        49        Cr     tau(  49) = (   0.6677091   0.2904819   1.0968932  )
        50        Cr     tau(  50) = (   0.4177102   0.1425314   1.0968932  )
        51        Cr     tau(  51) = (   0.6645817   0.0000000   1.0968932  )
        52        N      tau(  52) = (   0.5000001   0.0000000   0.9808490  )
        53        N      tau(  53) = (   0.7500001   0.1443381   1.2145625  )
        54        N      tau(  54) = (   0.5000000   0.2886751   1.2145635  )
        55        Cr     tau(  55) = (   0.0818409   0.7242730   0.8674001  )
        56        Cr     tau(  56) = (   0.5863184   0.4330128   0.8674001  )
        57        Cr     tau(  57) = (   0.3318409   0.5747653   0.8673998  )
        58        Cr     tau(  58) = (   0.4184970   0.7248581   0.6425759  )
        59        Cr     tau(  59) = (   0.1684970   0.5741800   0.6425759  )
        60        Cr     tau(  60) = (   0.4130059   0.4330127   0.6425759  )
        61        N      tau(  61) = (   0.2500000   0.4330127   0.5261641  )
        62        N      tau(  62) = (   0.5000000   0.5773502   0.7485579  )
        63        N      tau(  63) = (   0.2500000   0.7216878   0.7485579  )
        64        Cr     tau(  64) = (   0.0770021   0.7326550   1.3148749  )
        65        Cr     tau(  65) = (   0.5959968   0.4330133   1.3148749  )
        66        Cr     tau(  66) = (   0.3269999   0.5663804   1.3148727  )
        67        Cr     tau(  67) = (   0.4177099   0.7234948   1.0968938  )
        68        Cr     tau(  68) = (   0.1677091   0.5755435   1.0968932  )
        69        Cr     tau(  69) = (   0.4145807   0.4330121   1.0968932  )
        70        N      tau(  70) = (   0.2499999   0.4330126   0.9808490  )
        71        N      tau(  71) = (   0.4999995   0.5773501   1.2145625  )
        72        N      tau(  72) = (   0.2500001   0.7216873   1.2145625  )
        73        C      tau(  73) = (   0.0959968   0.4330121   1.6400443  )
        74        H      tau(  74) = (   0.0960062   0.4329958   1.5253427  )
        75        H      tau(  75) = (   0.1500645   0.3393640   1.6782959  )
        76        H      tau(  76) = (   0.1500645   0.5266710   1.6782693  )
        77        H      tau(  77) = (  -0.0121480   0.4330175   1.6782693  )

     --------------------------------------------
     DFT-D3 Dispersion Correction (3-body terms):
     --------------------------------------------
       Reference C6 values for interpolation: 

         atom   Coordination number   C6
         H          0.912             6.05
         H          0.000            15.18
         C          0.000            98.23
         C          0.987            86.49
         C          1.998            58.72
         C          2.999            51.56
         C          3.984            36.41
         N          0.000            50.54
         N          0.994            44.25
         N          2.014            39.35
         N          2.990            31.16
         Cr         0.000          1381.48
         Cr         1.827           571.38
         Cr        10.619           306.69

       Values used:

         atom   Coordination number  R0_AB[au]  C6      C8
         Cr        12.627            3.252    306.69  28303.74
         Cr        12.627            3.252    306.69  28303.74
         Cr        12.627            3.252    306.69  28303.74
         Cr        10.143            3.252    306.69  28303.74
         Cr        10.143            3.252    306.69  28303.74
         Cr        10.143            3.252    306.69  28303.74
         N          3.022            2.478     31.29    690.36
         N          6.023            2.478     31.16    687.49
         N          6.023            2.478     31.16    687.49
         Cr         9.073            3.252    306.69  28303.74
         Cr         9.071            3.252    306.69  28303.74
         Cr         9.073            3.252    306.69  28303.74
         Cr        12.748            3.252    306.69  28303.74
         Cr        12.748            3.252    306.69  28303.74
         Cr        12.748            3.252    306.69  28303.74
         N          6.047            2.478     31.16    687.49
         N          6.032            2.478     31.16    687.49
         N          6.032            2.478     31.16    687.49
         Cr        12.627            3.252    306.69  28303.74
         Cr        12.627            3.252    306.69  28303.74
         Cr        12.627            3.252    306.69  28303.74
         Cr        10.143            3.252    306.69  28303.74
         Cr        10.143            3.252    306.69  28303.74
         Cr        10.143            3.252    306.69  28303.74
         N          3.022            2.478     31.29    690.36
         N          6.023            2.478     31.16    687.49
         N          6.023            2.478     31.16    687.49
         Cr         9.071            3.252    306.69  28303.74
         Cr         9.409            3.252    306.69  28303.74
         Cr         9.073            3.252    306.69  28303.74
         Cr        12.748            3.252    306.69  28303.74
         Cr        12.748            3.252    306.69  28303.74
         Cr        12.748            3.252    306.69  28303.74
         N          6.047            2.478     31.16    687.49
         N          6.032            2.478     31.16    687.49
         N          6.032            2.478     31.16    687.49
         Cr        12.627            3.252    306.69  28303.74
         Cr        12.627            3.252    306.69  28303.74
         Cr        12.627            3.252    306.69  28303.74
         Cr        10.143            3.252    306.69  28303.74
         Cr        10.143            3.252    306.69  28303.74
         Cr        10.143            3.252    306.69  28303.74
         N          3.022            2.478     31.29    690.36
         N          6.023            2.478     31.16    687.49
         N          6.023            2.478     31.16    687.49
         Cr         9.074            3.252    306.69  28303.74
         Cr         9.071            3.252    306.69  28303.74
         Cr         9.071            3.252    306.69  28303.74
         Cr        12.748            3.252    306.69  28303.74
         Cr        12.748            3.252    306.69  28303.74
         Cr        12.748            3.252    306.69  28303.74
         N          6.047            2.478     31.16    687.49
         N          6.032            2.478     31.16    687.49
         N          6.032            2.478     31.16    687.49
         Cr        12.627            3.252    306.69  28303.74
         Cr        12.627            3.252    306.69  28303.74
         Cr        12.627            3.252    306.69  28303.74
         Cr        10.143            3.252    306.69  28303.74
         Cr        10.143            3.252    306.69  28303.74
         Cr        10.143            3.252    306.69  28303.74
         N          3.022            2.478     31.29    690.36
         N          6.023            2.478     31.16    687.49
         N          6.023            2.478     31.16    687.49
         Cr         9.073            3.252    306.69  28303.74
         Cr         9.071            3.252    306.69  28303.74
         Cr         9.074            3.252    306.69  28303.74
         Cr        12.748            3.252    306.69  28303.74
         Cr        12.748            3.252    306.69  28303.74
         Cr        12.748            3.252    306.69  28303.74
         N          6.047            2.478     31.16    687.49
         N          6.032            2.478     31.16    687.49
         N          6.032            2.478     31.16    687.49
         C          4.025            2.750     36.61   1058.79
         H          1.301            2.062      6.07     73.35
         H          0.997            2.062      6.18     74.75
         H          0.997            2.062      6.18     74.75
         H          0.997            2.062      6.18     74.76

         Molecular C6 ( Ry / a.u.^6 ) =    974466.15


     number of k points=    10  Methfessel-Paxton smearing, width (Ry)=  0.0200
                       cart. coord. in units 2pi/alat
        k(    1) = (   0.0000000   0.0000000   0.0000000), wk =   0.1250000
        k(    2) = (   0.0000000   0.2886753   0.0000000), wk =   0.2500000
        k(    3) = (   0.0000000  -0.5773505   0.0000000), wk =   0.1250000
        k(    4) = (   0.2500000   0.4330129   0.0000000), wk =   0.2500000
        k(    5) = (  -0.2500000   0.1443376   0.0000000), wk =   0.2500000
        k(    6) = (   0.2500000   0.1443376   0.0000000), wk =   0.2500000
        k(    7) = (   0.5000000  -0.2886753   0.0000000), wk =   0.1250000
        k(    8) = (  -0.5000000  -0.2886753   0.0000000), wk =   0.1250000
        k(    9) = (  -0.2500000   0.4330129   0.0000000), wk =   0.2500000
        k(   10) = (   0.5000000  -0.0000000   0.0000000), wk =   0.2500000

     Dense  grid:  4502593 G-vectors     FFT dimensions: ( 180, 180, 375)

     Smooth grid:   866593 G-vectors     FFT dimensions: (  96,  96, 216)

     Estimated max dynamical RAM per process >     867.27 MB

     Estimated total dynamical RAM >      50.98 GB

     Initial potential from superposition of free atoms

     starting charge     799.9627, renormalised to     800.0000

     negative rho (up, down):  3.308E-04 0.000E+00
     Starting wfcs are  584 randomized atomic wfcs
     Checking if some PAW data can be deallocated... 

     total cpu time spent up to now is       20.0 secs

     Self-consistent Calculation

     iteration #  1     ecut=    70.00 Ry     beta= 0.20
     Davidson diagonalization with overlap
     ethr =  1.00E-02,  avg # of iterations =  2.7

     negative rho (up, down):  1.299E-04 0.000E+00

     total cpu time spent up to now is       65.7 secs

     total energy              =  -12610.59967660 Ry
     estimated scf accuracy    <      29.37202503 Ry

     iteration #  2     ecut=    70.00 Ry     beta= 0.20
     Davidson diagonalization with overlap
     ethr =  3.67E-03,  avg # of iterations =  6.5

     negative rho (up, down):  4.055E-04 0.000E+00

     total cpu time spent up to now is      121.5 secs

     total energy              =  -12600.10399056 Ry
     estimated scf accuracy    <     680.26551966 Ry

     iteration #  3     ecut=    70.00 Ry     beta= 0.20
     Davidson diagonalization with overlap
     ethr =  3.67E-03,  avg # of iterations =  3.0

     negative rho (up, down):  5.971E-04 0.000E+00

     total cpu time spent up to now is      163.2 secs

     total energy              =  -12608.78195464 Ry
     estimated scf accuracy    <     495.01492295 Ry

     iteration #  4     ecut=    70.00 Ry     beta= 0.20
     Davidson diagonalization with overlap
     ethr =  3.67E-03,  avg # of iterations =  1.9

     negative rho (up, down):  2.804E-04 0.000E+00

     total cpu time spent up to now is      203.1 secs

     total energy              =  -12614.92057345 Ry
     estimated scf accuracy    <      84.09325025 Ry

     iteration #  5     ecut=    70.00 Ry     beta= 0.20
     Davidson diagonalization with overlap
     ethr =  3.67E-03,  avg # of iterations =  1.5

     negative rho (up, down):  3.547E-04 0.000E+00

     total cpu time spent up to now is      242.1 secs

     total energy              =  -12615.62266489 Ry
     estimated scf accuracy    <      14.40005610 Ry

     iteration #  6     ecut=    70.00 Ry     beta= 0.20
     Davidson diagonalization with overlap
     ethr =  1.80E-03,  avg # of iterations =  2.0

     negative rho (up, down):  4.142E-04 0.000E+00

     total cpu time spent up to now is      282.0 secs

     total energy              =  -12616.19444673 Ry
     estimated scf accuracy    <       3.25615920 Ry

     iteration #  7     ecut=    70.00 Ry     beta= 0.20
     Davidson diagonalization with overlap
     ethr =  4.07E-04,  avg # of iterations = 12.5

     negative rho (up, down):  4.187E-04 0.000E+00

     total cpu time spent up to now is      334.2 secs

     total energy              =  -12616.35683487 Ry
     estimated scf accuracy    <       2.62886369 Ry

     iteration #  8     ecut=    70.00 Ry     beta= 0.20
     Davidson diagonalization with overlap
     ethr =  3.29E-04,  avg # of iterations =  1.8

     negative rho (up, down):  4.396E-04 0.000E+00

     total cpu time spent up to now is      373.5 secs

     total energy              =  -12616.38435680 Ry
     estimated scf accuracy    <       0.83206321 Ry

     iteration #  9     ecut=    70.00 Ry     beta= 0.20
     Davidson diagonalization with overlap
     ethr =  1.04E-04,  avg # of iterations =  5.9

     negative rho (up, down):  3.687E-04 0.000E+00

     total cpu time spent up to now is      418.4 secs

     total energy              =  -12616.37604155 Ry
     estimated scf accuracy    <       0.78470640 Ry

     iteration # 10     ecut=    70.00 Ry     beta= 0.20
     Davidson diagonalization with overlap
     ethr =  9.81E-05,  avg # of iterations =  1.4

     negative rho (up, down):  3.346E-04 0.000E+00

     total cpu time spent up to now is      456.0 secs

     total energy              =  -12616.37271319 Ry
     estimated scf accuracy    <       0.62240080 Ry

     iteration # 11     ecut=    70.00 Ry     beta= 0.20
     Davidson diagonalization with overlap
     ethr =  7.78E-05,  avg # of iterations =  1.9

     negative rho (up, down):  3.562E-04 0.000E+00

     total cpu time spent up to now is      495.3 secs

     total energy              =  -12616.38732487 Ry
     estimated scf accuracy    <       0.22804788 Ry

     iteration # 12     ecut=    70.00 Ry     beta= 0.20
     Davidson diagonalization with overlap
     ethr =  2.85E-05,  avg # of iterations = 13.8

     negative rho (up, down):  2.633E-04 0.000E+00

     total cpu time spent up to now is      546.3 secs

     total energy              =  -12616.38225900 Ry
     estimated scf accuracy    <       0.51618625 Ry

     iteration # 13     ecut=    70.00 Ry     beta= 0.20
     Davidson diagonalization with overlap
     ethr =  2.85E-05,  avg # of iterations =  1.8

     negative rho (up, down):  2.299E-04 0.000E+00

     total cpu time spent up to now is      584.4 secs

     total energy              =  -12616.38957980 Ry
     estimated scf accuracy    <       0.13656490 Ry

     iteration # 14     ecut=    70.00 Ry     beta= 0.20
     Davidson diagonalization with overlap
     c_bands:  1 eigenvalues not converged
     ethr =  1.71E-05,  avg # of iterations =  3.2

     negative rho (up, down):  2.006E-04 0.000E+00

     total cpu time spent up to now is      626.5 secs

     total energy              =  -12616.39011277 Ry
     estimated scf accuracy    <       0.08703545 Ry

     iteration # 15     ecut=    70.00 Ry     beta= 0.20
     Davidson diagonalization with overlap
     ethr =  1.09E-05,  avg # of iterations =  2.0

     negative rho (up, down):  1.833E-04 0.000E+00

     total cpu time spent up to now is      665.7 secs

     total energy              =  -12616.38992164 Ry
     estimated scf accuracy    <       0.15671957 Ry

     iteration # 16     ecut=    70.00 Ry     beta= 0.20
     Davidson diagonalization with overlap
     ethr =  1.09E-05,  avg # of iterations =  1.0

     negative rho (up, down):  1.822E-04 0.000E+00

     total cpu time spent up to now is      700.7 secs

     total energy              =  -12616.39076977 Ry
     estimated scf accuracy    <       0.13622082 Ry

     iteration # 17     ecut=    70.00 Ry     beta= 0.20
     Davidson diagonalization with overlap
     ethr =  1.09E-05,  avg # of iterations =  1.2

     negative rho (up, down):  1.859E-04 0.000E+00

     total cpu time spent up to now is      738.1 secs

     total energy              =  -12616.39224122 Ry
     estimated scf accuracy    <       0.02583051 Ry

     iteration # 18     ecut=    70.00 Ry     beta= 0.20
     Davidson diagonalization with overlap
     ethr =  3.23E-06,  avg # of iterations =  8.3

     negative rho (up, down):  1.860E-04 0.000E+00

     total cpu time spent up to now is      787.1 secs

     total energy              =  -12616.39279686 Ry
     estimated scf accuracy    <       0.04285174 Ry

     iteration # 19     ecut=    70.00 Ry     beta= 0.20
     Davidson diagonalization with overlap
     ethr =  3.23E-06,  avg # of iterations =  1.9

     negative rho (up, down):  1.882E-04 0.000E+00

     total cpu time spent up to now is      825.3 secs

     total energy              =  -12616.39364210 Ry
     estimated scf accuracy    <       0.00804030 Ry

     iteration # 20     ecut=    70.00 Ry     beta= 0.20
     Davidson diagonalization with overlap
     ethr =  1.01E-06,  avg # of iterations =  2.0

     negative rho (up, down):  1.905E-04 0.000E+00

     total cpu time spent up to now is      865.0 secs

     total energy              =  -12616.39381439 Ry
     estimated scf accuracy    <       0.00458089 Ry

     iteration # 21     ecut=    70.00 Ry     beta= 0.20
     Davidson diagonalization with overlap
     ethr =  5.73E-07,  avg # of iterations =  1.9

     negative rho (up, down):  1.946E-04 0.000E+00

     total cpu time spent up to now is      904.9 secs

     total energy              =  -12616.39396192 Ry
     estimated scf accuracy    <       0.00440365 Ry

     iteration # 22     ecut=    70.00 Ry     beta= 0.20
     Davidson diagonalization with overlap
     ethr =  5.50E-07,  avg # of iterations =  1.5

     negative rho (up, down):  1.973E-04 0.000E+00

     total cpu time spent up to now is      943.3 secs

     total energy              =  -12616.39405676 Ry
     estimated scf accuracy    <       0.00349197 Ry

     iteration # 23     ecut=    70.00 Ry     beta= 0.20
     Davidson diagonalization with overlap
     ethr =  4.36E-07,  avg # of iterations =  1.5

     negative rho (up, down):  2.017E-04 0.000E+00

     total cpu time spent up to now is      982.2 secs

     total energy              =  -12616.39413777 Ry
     estimated scf accuracy    <       0.00335809 Ry

     iteration # 24     ecut=    70.00 Ry     beta= 0.20
     Davidson diagonalization with overlap
     ethr =  4.20E-07,  avg # of iterations =  1.0

     negative rho (up, down):  2.018E-04 0.000E+00

     total cpu time spent up to now is     1017.3 secs

     total energy              =  -12616.39423375 Ry
     estimated scf accuracy    <       0.00030414 Ry

     iteration # 25     ecut=    70.00 Ry     beta= 0.20
     Davidson diagonalization with overlap
     ethr =  3.80E-08,  avg # of iterations =  6.0

     negative rho (up, down):  2.025E-04 0.000E+00

     total cpu time spent up to now is     1061.2 secs

     total energy              =  -12616.39424508 Ry
     estimated scf accuracy    <       0.00057245 Ry

     iteration # 26     ecut=    70.00 Ry     beta= 0.20
     Davidson diagonalization with overlap
     ethr =  3.80E-08,  avg # of iterations =  1.4

     negative rho (up, down):  2.029E-04 0.000E+00

     total cpu time spent up to now is     1099.9 secs

     total energy              =  -12616.39425714 Ry
     estimated scf accuracy    <       0.00044404 Ry

     iteration # 27     ecut=    70.00 Ry     beta= 0.20
     Davidson diagonalization with overlap
     ethr =  3.80E-08,  avg # of iterations =  1.0

     negative rho (up, down):  2.024E-04 0.000E+00

     total cpu time spent up to now is     1134.9 secs

     total energy              =  -12616.39426409 Ry
     estimated scf accuracy    <       0.00013723 Ry

     iteration # 28     ecut=    70.00 Ry     beta= 0.20
     Davidson diagonalization with overlap
     ethr =  1.72E-08,  avg # of iterations =  2.1

     negative rho (up, down):  2.023E-04 0.000E+00

     total cpu time spent up to now is     1175.0 secs

     total energy              =  -12616.39425494 Ry
     estimated scf accuracy    <       0.00084908 Ry

     iteration # 29     ecut=    70.00 Ry     beta= 0.20
     Davidson diagonalization with overlap
     ethr =  1.72E-08,  avg # of iterations =  1.2

     negative rho (up, down):  2.030E-04 0.000E+00

     total cpu time spent up to now is     1212.3 secs

     total energy              =  -12616.39426816 Ry
     estimated scf accuracy    <       0.00026636 Ry

     iteration # 30     ecut=    70.00 Ry     beta= 0.20
     Davidson diagonalization with overlap
     ethr =  1.72E-08,  avg # of iterations =  1.0

     negative rho (up, down):  2.030E-04 0.000E+00

     total cpu time spent up to now is     1247.5 secs

     total energy              =  -12616.39427389 Ry
     estimated scf accuracy    <       0.00006291 Ry

     iteration # 31     ecut=    70.00 Ry     beta= 0.20
     Davidson diagonalization with overlap
     ethr =  7.86E-09,  avg # of iterations =  1.2

     negative rho (up, down):  2.026E-04 0.000E+00

     total cpu time spent up to now is     1284.7 secs

     total energy              =  -12616.39427378 Ry
     estimated scf accuracy    <       0.00004925 Ry

     iteration # 32     ecut=    70.00 Ry     beta= 0.20
     Davidson diagonalization with overlap
     ethr =  6.16E-09,  avg # of iterations =  1.1

     negative rho (up, down):  2.025E-04 0.000E+00

     total cpu time spent up to now is     1321.0 secs

     total energy              =  -12616.39427394 Ry
     estimated scf accuracy    <       0.00003016 Ry

     iteration # 33     ecut=    70.00 Ry     beta= 0.20
     Davidson diagonalization with overlap
     ethr =  3.77E-09,  avg # of iterations =  1.3

     negative rho (up, down):  2.023E-04 0.000E+00

     total cpu time spent up to now is     1358.4 secs

     total energy              =  -12616.39427367 Ry
     estimated scf accuracy    <       0.00001944 Ry

     iteration # 34     ecut=    70.00 Ry     beta= 0.20
     Davidson diagonalization with overlap
     ethr =  2.43E-09,  avg # of iterations =  1.4

     negative rho (up, down):  2.022E-04 0.000E+00

     total cpu time spent up to now is     1397.0 secs

     total energy              =  -12616.39427279 Ry
     estimated scf accuracy    <       0.00005717 Ry

     iteration # 35     ecut=    70.00 Ry     beta= 0.20
     Davidson diagonalization with overlap
     ethr =  2.43E-09,  avg # of iterations =  1.0

     negative rho (up, down):  2.019E-04 0.000E+00

     total cpu time spent up to now is     1432.0 secs

     total energy              =  -12616.39427322 Ry
     estimated scf accuracy    <       0.00002088 Ry

     iteration # 36     ecut=    70.00 Ry     beta= 0.20
     Davidson diagonalization with overlap
     ethr =  2.43E-09,  avg # of iterations =  1.0

     negative rho (up, down):  2.016E-04 0.000E+00

     total cpu time spent up to now is     1467.2 secs

     total energy              =  -12616.39427286 Ry
     estimated scf accuracy    <       0.00001656 Ry

     iteration # 37     ecut=    70.00 Ry     beta= 0.20
     Davidson diagonalization with overlap
     ethr =  2.07E-09,  avg # of iterations =  1.0

     negative rho (up, down):  2.015E-04 0.000E+00

     total cpu time spent up to now is     1502.2 secs

     total energy              =  -12616.39427326 Ry
     estimated scf accuracy    <       0.00000201 Ry

     iteration # 38     ecut=    70.00 Ry     beta= 0.20
     Davidson diagonalization with overlap
     ethr =  2.52E-10,  avg # of iterations =  3.2

     negative rho (up, down):  2.013E-04 0.000E+00

     total cpu time spent up to now is     1543.7 secs

     total energy              =  -12616.39427316 Ry
     estimated scf accuracy    <       0.00000408 Ry

     iteration # 39     ecut=    70.00 Ry     beta= 0.20
     Davidson diagonalization with overlap
     ethr =  2.52E-10,  avg # of iterations =  1.2

     negative rho (up, down):  2.013E-04 0.000E+00

     total cpu time spent up to now is     1581.1 secs

     total energy              =  -12616.39427310 Ry
     estimated scf accuracy    <       0.00000497 Ry

     iteration # 40     ecut=    70.00 Ry     beta= 0.20
     Davidson diagonalization with overlap
     ethr =  2.52E-10,  avg # of iterations =  1.2

     negative rho (up, down):  2.012E-04 0.000E+00

     total cpu time spent up to now is     1618.6 secs

     total energy              =  -12616.39427316 Ry
     estimated scf accuracy    <       0.00000063 Ry

     iteration # 41     ecut=    70.00 Ry     beta= 0.20
     Davidson diagonalization with overlap
     ethr =  7.92E-11,  avg # of iterations =  2.9

     negative rho (up, down):  2.011E-04 0.000E+00

     total cpu time spent up to now is     1660.0 secs

     total energy              =  -12616.39427310 Ry
     estimated scf accuracy    <       0.00000159 Ry

     iteration # 42     ecut=    70.00 Ry     beta= 0.20
     Davidson diagonalization with overlap
     ethr =  7.92E-11,  avg # of iterations =  1.3

     negative rho (up, down):  2.011E-04 0.000E+00

     total cpu time spent up to now is     1698.5 secs

     total energy              =  -12616.39427313 Ry
     estimated scf accuracy    <       0.00000061 Ry

     iteration # 43     ecut=    70.00 Ry     beta= 0.20
     Davidson diagonalization with overlap
     ethr =  7.66E-11,  avg # of iterations =  1.2

     negative rho (up, down):  2.010E-04 0.000E+00

     total cpu time spent up to now is     1735.8 secs

     total energy              =  -12616.39427315 Ry
     estimated scf accuracy    <       0.00000015 Ry

     iteration # 44     ecut=    70.00 Ry     beta= 0.20
     Davidson diagonalization with overlap
     ethr =  1.83E-11,  avg # of iterations =  4.6

     negative rho (up, down):  2.010E-04 0.000E+00

     total cpu time spent up to now is     1778.3 secs

     total energy              =  -12616.39427315 Ry
     estimated scf accuracy    <       0.00000012 Ry

     iteration # 45     ecut=    70.00 Ry     beta= 0.20
     Davidson diagonalization with overlap
     ethr =  1.50E-11,  avg # of iterations =  1.7

     negative rho (up, down):  2.010E-04 0.000E+00

     total cpu time spent up to now is     1818.1 secs

     total energy              =  -12616.39427315 Ry
     estimated scf accuracy    <       0.00000016 Ry

     iteration # 46     ecut=    70.00 Ry     beta= 0.20
     Davidson diagonalization with overlap
     ethr =  1.50E-11,  avg # of iterations =  2.0

     negative rho (up, down):  2.010E-04 0.000E+00

     total cpu time spent up to now is     1858.4 secs

     total energy              =  -12616.39427314 Ry
     estimated scf accuracy    <       0.00000012 Ry

     iteration # 47     ecut=    70.00 Ry     beta= 0.20
     Davidson diagonalization with overlap
     ethr =  1.47E-11,  avg # of iterations =  1.1

     negative rho (up, down):  2.009E-04 0.000E+00

     total cpu time spent up to now is     1894.4 secs

     total energy              =  -12616.39427314 Ry
     estimated scf accuracy    <       0.00000020 Ry

     iteration # 48     ecut=    70.00 Ry     beta= 0.20
     Davidson diagonalization with overlap
     ethr =  1.47E-11,  avg # of iterations =  1.1

     negative rho (up, down):  2.010E-04 0.000E+00

     total cpu time spent up to now is     1930.6 secs

     total energy              =  -12616.39427315 Ry
     estimated scf accuracy    <       0.00000006 Ry

     iteration # 49     ecut=    70.00 Ry     beta= 0.20
     Davidson diagonalization with overlap
     ethr =  8.01E-12,  avg # of iterations =  1.4

     negative rho (up, down):  2.010E-04 0.000E+00

     total cpu time spent up to now is     1969.5 secs

     total energy              =  -12616.39427315 Ry
     estimated scf accuracy    <       0.00000023 Ry

     iteration # 50     ecut=    70.00 Ry     beta= 0.20
     Davidson diagonalization with overlap
     ethr =  8.01E-12,  avg # of iterations =  1.0

     negative rho (up, down):  2.009E-04 0.000E+00

     total cpu time spent up to now is     2004.5 secs

     total energy              =  -12616.39427315 Ry
     estimated scf accuracy    <       0.00000005 Ry

     iteration # 51     ecut=    70.00 Ry     beta= 0.20
     Davidson diagonalization with overlap
     ethr =  5.95E-12,  avg # of iterations =  1.1

     negative rho (up, down):  2.009E-04 0.000E+00

     total cpu time spent up to now is     2040.7 secs

     total energy              =  -12616.39427315 Ry
     estimated scf accuracy    <       0.00000004 Ry

     iteration # 52     ecut=    70.00 Ry     beta= 0.20
     Davidson diagonalization with overlap
     ethr =  5.42E-12,  avg # of iterations =  1.0

     negative rho (up, down):  2.009E-04 0.000E+00

     total cpu time spent up to now is     2075.8 secs

     total energy              =  -12616.39427315 Ry
     estimated scf accuracy    <       0.00000002 Ry

     iteration # 53     ecut=    70.00 Ry     beta= 0.20
     Davidson diagonalization with overlap
     ethr =  2.49E-12,  avg # of iterations =  1.4

     negative rho (up, down):  2.009E-04 0.000E+00

     total cpu time spent up to now is     2114.5 secs

     End of self-consistent calculation

          k = 0.0000 0.0000 0.0000 (108303 PWs)   bands (ev):

   -67.0589 -67.0190 -67.0184 -67.0180 -67.0102 -67.0101 -67.0094 -67.0072
   -66.9845 -66.9844 -66.9843 -66.9806 -66.9795 -66.9783 -66.9756 -66.9751
   -66.9743 -66.9741 -66.9735 -66.9623 -66.9610 -66.9605 -66.9573 -66.9563
   -66.8071 -66.7780 -66.7777 -66.7775 -66.7709 -66.7707 -66.7706 -66.7542
   -66.7540 -66.7538 -66.7477 -66.7475 -66.7071 -66.6890 -66.6843 -66.6827
   -66.6554 -66.6553 -66.6512 -66.6431 -66.6428 -66.6398 -66.6359 -66.6358
   -38.8628 -38.8360 -38.8347 -38.8340 -38.7337 -38.7328 -38.7326 -38.6942
   -38.6934 -38.6782 -38.6776 -38.6772 -38.6532 -38.6222 -38.6214 -38.6205
   -38.6002 -38.5994 -38.5987 -38.5718 -38.5697 -38.5692 -38.5358 -38.5351
   -38.5307 -38.5305 -38.5302 -38.5226 -38.4482 -38.4388 -38.4305 -38.4304
   -38.4299 -38.4259 -38.4259 -38.4238 -38.4233 -38.4231 -38.3860 -38.3857
   -38.3856 -38.3693 -38.3691 -38.3684 -38.3446 -38.3247 -38.3244 -38.3242
   -38.3217 -38.3216 -38.3216 -38.3206 -38.3206 -38.3032 -38.3031 -38.2992
   -38.2973 -38.2968 -38.2899 -38.2898 -38.2897 -38.2895 -38.2865 -38.2865
   -38.2748 -38.2742 -38.2738 -38.2682 -38.2611 -38.2609 -38.2604 -38.2114
   -38.2094 -38.2081 -38.2046 -38.2024 -38.2017 -38.1993 -38.1982 -38.1966
   -38.1766 -38.1744 -38.1737 -38.1714 -38.1549 -38.1544 -38.1541 -38.1387
   -38.1385 -38.1259 -38.1216 -38.1153 -38.1130 -38.1121 -38.1118 -38.1099
   -38.0983 -38.0972 -38.0922 -38.0914 -38.0912 -38.0631 -38.0629 -38.0626
   -38.0290 -38.0283 -38.0212 -38.0211 -38.0210 -38.0072 -38.0063 -38.0052
   -38.0049 -38.0043 -38.0031 -37.9868 -37.9834 -37.9823 -37.9817 -37.9701
   -37.9689 -37.9591 -37.9589 -37.9585 -37.9254 -37.9252 -37.9249 -37.9242
   -37.9239 -37.9239 -37.8955 -37.8952 -37.8880 -37.8745 -37.8698 -37.8688
   -37.7600 -37.7587 -37.7566 -37.7335 -37.7330 -37.7324 -37.7144 -37.7144
   -12.5599 -12.0900 -11.8576 -11.8570 -11.8565 -11.7101 -11.7082 -11.7068
   -11.6853 -11.6843 -11.6833 -11.4023 -11.4012 -11.3998 -11.3253 -11.2927
   -11.2918 -11.2909 -11.0609 -11.0404  -8.7696  -8.7693  -8.7691  -8.7117
    -7.9497  -3.0616  -3.0600  -3.0596  -2.8466  -2.8186  -2.8181  -2.6240
    -2.6240  -2.6234  -2.6011  -2.5964  -2.5960  -2.5277  -2.4677  -2.4640
    -2.4628  -2.3791  -2.3774  -2.3767  -2.2961  -2.2952  -1.8202  -1.8175
    -1.8174  -1.6415  -1.6400  -1.6396  -1.5569  -1.5504  -1.5468  -1.4868
    -1.4844  -1.4844  -1.4104  -1.3974  -1.3964  -1.3955  -1.3429  -1.3429
    -1.2877  -1.2845  -1.2843  -1.1495  -1.1465  -1.0435  -1.0048  -0.9778
    -0.9767  -0.9633  -0.9586  -0.9127  -0.8880  -0.8840  -0.8820  -0.8394
    -0.7453  -0.7436  -0.7210  -0.4939  -0.4932  -0.4924  -0.1745  -0.1729
     0.5996   1.1667   1.1669   1.1671   1.4096   1.4096   1.4098   1.4867
     1.5032   1.5032   1.5253   1.5256   1.5257   1.5467   1.5468   1.5469
     1.7207   1.7218   1.7223   2.0088   2.0091   2.0103   2.1354   2.1357
     2.1362   2.1663   2.2905   2.2928   2.2932   2.3805   2.3808   2.3842
     2.3951   2.3957   2.3971   2.4584   2.4591   2.4591   2.4763   2.6386
     2.6387   2.7420   2.7428   2.7429   3.0998   3.0999   3.1361   3.2286
     3.2287   3.2928   3.2933   3.2942   3.3078   3.3078   3.3119   3.4363
     3.4368   3.4391   3.4906   3.4964   3.4984   3.5871   3.6094   3.6122
     3.6170   3.6387   3.6391   3.6697   3.6711   3.6723   3.6735   3.7676
     3.7709   3.7731   3.9362   3.9381   3.9806   4.0820   4.0856   4.0867
     4.1032   4.1033   4.2364   4.2432   4.2505   4.2574   4.3074   4.3116
     4.3190   4.3591   4.3617   4.3621   4.3766   4.4363   4.4401   4.4404
     4.4930   4.4931   4.5991   4.6436   4.6474   4.6576   4.6898   4.7304
     4.7316   4.7405   4.7816   4.7825   4.8317   4.8378   4.8390   4.8995
     4.9021   4.9043   4.9612   4.9615   4.9819   5.0741   5.0784   5.0992
     5.1846   5.1897   5.2260   5.3372   5.3377   5.3383   5.4480   5.4483
     5.4940   5.4968   5.5089   5.5131   5.5135   5.5190   5.6423   5.6427
     5.6438   5.6535   5.6557   5.6621   5.6738   5.6740   5.7131   5.7133
     5.7371   5.7899   5.8097   5.8106   5.8110   5.8154   5.8156   5.8249
     5.8578   5.8607   5.9382   5.9383   5.9400   5.9571   5.9594   5.9594
     5.9600   5.9656   6.0128   6.0136   6.0138   6.0688   6.0696   6.0749
     6.1489   6.1502   6.1635   6.1643   6.1654   6.2084   6.2090   6.2166
     6.2176   6.2246   6.2637   6.2654   6.2664   6.3101   6.3138   6.3251
     6.4763   6.5163   6.5164   6.5170   6.5775   6.5779   6.5847   6.6186
     6.6207   6.6619   6.6641   6.6656   6.6737   6.6740   6.6872   6.7803

          k = 0.0000 0.2887 0.0000 (108355 PWs)   bands (ev):

   -67.0555 -67.0314 -67.0221 -67.0217 -67.0049 -67.0041 -67.0037 -66.9974
   -66.9883 -66.9871 -66.9869 -66.9831 -66.9822 -66.9813 -66.9764 -66.9758
   -66.9719 -66.9710 -66.9675 -66.9631 -66.9621 -66.9603 -66.9579 -66.9571
   -66.8045 -66.7867 -66.7803 -66.7798 -66.7669 -66.7666 -66.7626 -66.7559
   -66.7555 -66.7531 -66.7492 -66.7486 -66.7050 -66.6905 -66.6871 -66.6831
   -66.6542 -66.6529 -66.6489 -66.6438 -66.6426 -66.6406 -66.6374 -66.6363
   -38.8595 -38.8397 -38.8309 -38.8307 -38.7292 -38.7274 -38.7273 -38.7021
   -38.6920 -38.6848 -38.6843 -38.6816 -38.6548 -38.6395 -38.6255 -38.6240
   -38.5947 -38.5943 -38.5842 -38.5735 -38.5719 -38.5696 -38.5636 -38.5409
   -38.5247 -38.5244 -38.5229 -38.5015 -38.4411 -38.4407 -38.4360 -38.4320
   -38.4283 -38.4222 -38.4218 -38.4199 -38.4147 -38.4074 -38.3912 -38.3867
   -38.3865 -38.3774 -38.3715 -38.3714 -38.3463 -38.3406 -38.3265 -38.3264
   -38.3257 -38.3244 -38.3244 -38.3242 -38.3183 -38.3122 -38.3083 -38.3066
   -38.3051 -38.3045 -38.2947 -38.2927 -38.2923 -38.2848 -38.2755 -38.2744
   -38.2687 -38.2679 -38.2672 -38.2553 -38.2517 -38.2514 -38.2507 -38.2164
   -38.2151 -38.2134 -38.2128 -38.2108 -38.2032 -38.2011 -38.2005 -38.1880
   -38.1815 -38.1799 -38.1792 -38.1638 -38.1570 -38.1567 -38.1434 -38.1427
   -38.1318 -38.1263 -38.1248 -38.1192 -38.1158 -38.1107 -38.1085 -38.1008
   -38.1001 -38.0900 -38.0878 -38.0866 -38.0852 -38.0690 -38.0682 -38.0651
   -38.0333 -38.0292 -38.0270 -38.0189 -38.0188 -38.0152 -38.0050 -38.0034
   -38.0022 -38.0007 -37.9994 -37.9843 -37.9815 -37.9807 -37.9797 -37.9720
   -37.9704 -37.9616 -37.9610 -37.9574 -37.9315 -37.9277 -37.9272 -37.9192
   -37.9184 -37.9156 -37.9056 -37.8978 -37.8850 -37.8750 -37.8706 -37.8697
   -37.7580 -37.7558 -37.7538 -37.7338 -37.7327 -37.7296 -37.7233 -37.7163
   -12.4964 -12.0692 -12.0477 -11.9128 -11.9121 -11.7810 -11.6949 -11.6921
   -11.6196 -11.6178 -11.5391 -11.3937 -11.3911 -11.3443 -11.3253 -11.3235
   -11.3135 -11.2601 -11.0940 -11.0753  -8.7712  -8.7707  -8.7596  -8.7188
    -7.9497  -3.0291  -3.0273  -2.9871  -2.8755  -2.8047  -2.7925  -2.7667
    -2.7639  -2.7622  -2.6463  -2.6454  -2.4955  -2.4561  -2.4091  -2.4063
    -2.4053  -2.3471  -2.2951  -2.2641  -2.2620  -2.2179  -2.0176  -1.8265
    -1.8255  -1.7827  -1.6951  -1.6887  -1.6332  -1.5413  -1.5404  -1.4999
    -1.4804  -1.4546  -1.4497  -1.4263  -1.3824  -1.3803  -1.3682  -1.3128
    -1.3116  -1.2964  -1.1817  -1.1407  -1.1218  -1.0745  -1.0192  -0.9852
    -0.9625  -0.9529  -0.9147  -0.8955  -0.8918  -0.8663  -0.8396  -0.8068
    -0.7838  -0.7127  -0.7022  -0.5648  -0.5200  -0.5189  -0.1749  -0.1731
     0.7207   1.1285   1.1599   1.1604   1.3992   1.3995   1.4097   1.4115
     1.4772   1.4951   1.4953   1.5141   1.5761   1.6156   1.6171   1.6289
     1.7325   1.7342   1.7779   2.0166   2.0175   2.0608   2.1117   2.1135
     2.1656   2.2192   2.2530   2.2543   2.2782   2.3760   2.3769   2.3945
     2.4067   2.4071   2.4700   2.5002   2.5010   2.5206   2.5416   2.5709
     2.6733   2.7533   2.7544   2.8154   2.9688   3.0207   3.0833   3.1536
     3.1552   3.1839   3.1900   3.2177   3.3153   3.3179   3.3449   3.3504
     3.3512   3.3937   3.4697   3.5492   3.5515   3.5609   3.5936   3.6394
     3.6541   3.6595   3.6650   3.6833   3.7322   3.7349   3.7361   3.8183
     3.9432   3.9663   3.9720   3.9796   3.9883   3.9954   4.0095   4.0989
     4.1210   4.1323   4.1910   4.1966   4.2237   4.2519   4.2598   4.2628
     4.2951   4.3144   4.3335   4.3368   4.3565   4.4295   4.4361   4.4467
     4.4511   4.5140   4.5258   4.6352   4.6454   4.6600   4.6875   4.7201
     4.7306   4.7376   4.7885   4.8005   4.8263   4.8807   4.8914   4.8930
     4.9262   4.9291   4.9560   5.0183   5.0409   5.0932   5.1053   5.1376
     5.1525   5.1854   5.2033   5.2536   5.2787   5.3103   5.3183   5.4019
     5.4215   5.4222   5.4232   5.4741   5.5040   5.5112   5.5222   5.5281
     5.5378   5.6393   5.6571   5.6592   5.7001   5.7048   5.7118   5.7149
     5.7288   5.7629   5.7672   5.7865   5.7920   5.8400   5.8413   5.8430
     5.8488   5.8935   5.9057   5.9201   5.9273   5.9283   5.9724   5.9739
     5.9776   5.9936   5.9981   6.0002   6.0139   6.0157   6.0492   6.1305
     6.1602   6.1608   6.1797   6.2045   6.2056   6.2069   6.2137   6.2586
     6.2683   6.2690   6.2762   6.3217   6.3541   6.3574   6.3654   6.4056
     6.4190   6.4209   6.4891   6.4910   6.5067   6.5121   6.6017   6.6057
     6.6284   6.6415   6.6547   6.6756   6.6938   6.6954   6.7540   6.7578

          k = 0.0000-0.5774 0.0000 (108310 PWs)   bands (ev):

   -67.0457 -67.0456 -67.0242 -67.0238 -66.9983 -66.9977 -66.9966 -66.9963
   -66.9924 -66.9923 -66.9848 -66.9846 -66.9836 -66.9828 -66.9797 -66.9796
   -66.9681 -66.9666 -66.9653 -66.9652 -66.9616 -66.9601 -66.9591 -66.9588
   -66.7973 -66.7970 -66.7817 -66.7813 -66.7618 -66.7616 -66.7596 -66.7590
   -66.7545 -66.7540 -66.7511 -66.7508 -66.7011 -66.6951 -66.6883 -66.6835
   -66.6528 -66.6504 -66.6469 -66.6434 -66.6420 -66.6419 -66.6403 -66.6369
   -38.8506 -38.8499 -38.8266 -38.8263 -38.7213 -38.7211 -38.7179 -38.7165
   -38.6920 -38.6917 -38.6879 -38.6878 -38.6534 -38.6533 -38.6278 -38.6262
   -38.5905 -38.5900 -38.5817 -38.5808 -38.5763 -38.5752 -38.5550 -38.5547
   -38.5175 -38.5170 -38.5056 -38.5051 -38.4505 -38.4501 -38.4276 -38.4275
   -38.4219 -38.4216 -38.4117 -38.4116 -38.4003 -38.3997 -38.3888 -38.3885
   -38.3833 -38.3830 -38.3746 -38.3740 -38.3612 -38.3611 -38.3291 -38.3289
   -38.3288 -38.3283 -38.3237 -38.3236 -38.3208 -38.3203 -38.3122 -38.3105
   -38.3044 -38.3041 -38.2995 -38.2955 -38.2952 -38.2944 -38.2716 -38.2707
   -38.2542 -38.2516 -38.2460 -38.2443 -38.2442 -38.2424 -38.2409 -38.2394
   -38.2258 -38.2235 -38.2227 -38.2203 -38.1955 -38.1935 -38.1922 -38.1919
   -38.1886 -38.1882 -38.1748 -38.1735 -38.1579 -38.1577 -38.1389 -38.1378
   -38.1288 -38.1254 -38.1228 -38.1196 -38.1170 -38.1123 -38.1056 -38.1037
   -38.0981 -38.0969 -38.0835 -38.0812 -38.0775 -38.0747 -38.0543 -38.0532
   -38.0430 -38.0421 -38.0294 -38.0285 -38.0172 -38.0169 -38.0037 -38.0006
   -37.9987 -37.9973 -37.9925 -37.9924 -37.9781 -37.9769 -37.9765 -37.9738
   -37.9643 -37.9639 -37.9633 -37.9628 -37.9291 -37.9286 -37.9254 -37.9248
   -37.9152 -37.9143 -37.9054 -37.9050 -37.8811 -37.8744 -37.8737 -37.8706
   -37.7560 -37.7510 -37.7433 -37.7412 -37.7347 -37.7327 -37.7244 -37.7199
   -12.3199 -12.3189 -11.9475 -11.9466 -11.9334 -11.9320 -11.7026 -11.6999
   -11.5316 -11.5304 -11.4060 -11.4057 -11.3938 -11.3901 -11.3697 -11.3684
   -11.1860 -11.1843 -11.1679 -11.1678  -8.7728  -8.7723  -8.7381  -8.7376
    -7.9497  -2.9925  -2.9904  -2.9007  -2.8997  -2.8333  -2.8329  -2.8312
    -2.8292  -2.7068  -2.7063  -2.5907  -2.5893  -2.4258  -2.4236  -2.3627
    -2.3579  -2.3089  -2.3035  -2.1793  -2.1775  -2.0951  -2.0944  -1.9024
    -1.9017  -1.7667  -1.7580  -1.7175  -1.7126  -1.6284  -1.6261  -1.5040
    -1.5033  -1.5030  -1.4961  -1.3750  -1.3741  -1.3239  -1.3224  -1.3076
    -1.3049  -1.1915  -1.1904  -1.1091  -1.1087  -1.0917  -1.0904  -0.9632
    -0.9618  -0.9606  -0.9157  -0.9110  -0.8952  -0.7987  -0.7932  -0.7897
    -0.7304  -0.7224  -0.6810  -0.6804  -0.5437  -0.5430  -0.1752  -0.1733
     0.9626   0.9643   1.1478   1.1484   1.3784   1.3798   1.3996   1.4000
     1.4751   1.4754   1.4917   1.4917   1.6337   1.6345   1.6445   1.6494
     1.8713   1.8727   1.8778   1.8786   2.0504   2.0530   2.0887   2.0911
     2.1810   2.1819   2.3130   2.3138   2.3359   2.3369   2.3691   2.3691
     2.4077   2.4093   2.4219   2.4222   2.5286   2.5301   2.6983   2.7024
     2.7546   2.7567   2.7759   2.7777   2.9688   2.9728   2.9913   2.9935
     3.0614   3.0614   3.1576   3.1620   3.2792   3.2801   3.3422   3.3443
     3.3746   3.3770   3.4713   3.4721   3.5762   3.5777   3.6262   3.6274
     3.6920   3.6921   3.7587   3.7703   3.8241   3.8249   3.8579   3.8619
     3.8959   3.8968   3.9181   3.9334   3.9550   3.9614   4.0731   4.0909
     4.1049   4.1081   4.2216   4.2374   4.2455   4.2732   4.2976   4.2985
     4.3081   4.3152   4.3167   4.3328   4.3929   4.4060   4.4195   4.4237
     4.4312   4.4397   4.5610   4.5643   4.5670   4.5921   4.6310   4.6317
     4.6506   4.6524   4.7621   4.7769   4.9431   4.9444   4.9455   4.9496
     4.9496   4.9654   5.0140   5.0235   5.0710   5.0727   5.0892   5.0907
     5.1389   5.1404   5.2207   5.2434   5.2964   5.2973   5.3084   5.3105
     5.3903   5.3917   5.4179   5.4225   5.4770   5.4776   5.5169   5.5257
     5.5451   5.5488   5.5503   5.6020   5.6603   5.6624   5.6980   5.6986
     5.7169   5.7203   5.7386   5.7524   5.7967   5.7999   5.8284   5.8314
     5.8480   5.8504   5.8673   5.8696   5.9206   5.9352   5.9570   5.9580
     5.9942   6.0009   6.0319   6.0441   6.1136   6.1161   6.1274   6.1315
     6.1324   6.1378   6.1494   6.1518   6.1643   6.1670   6.2972   6.2978
     6.2994   6.3035   6.3430   6.3560   6.3779   6.3829   6.3999   6.4014
     6.4164   6.4210   6.4493   6.4497   6.5701   6.5723   6.5745   6.5757
     6.6118   6.6162   6.6640   6.6671   6.8097   6.8154   6.8195   6.9049

          k = 0.2500 0.4330 0.0000 (108308 PWs)   bands (ev):

   -67.0488 -67.0371 -67.0365 -67.0130 -67.0051 -67.0001 -66.9955 -66.9923
   -66.9914 -66.9906 -66.9900 -66.9844 -66.9842 -66.9808 -66.9798 -66.9760
   -66.9723 -66.9669 -66.9644 -66.9638 -66.9615 -66.9606 -66.9594 -66.9585
   -66.7995 -66.7907 -66.7906 -66.7740 -66.7673 -66.7612 -66.7580 -66.7578
   -66.7540 -66.7538 -66.7519 -66.7509 -66.7014 -66.6933 -66.6909 -66.6822
   -66.6527 -66.6510 -66.6461 -66.6444 -66.6430 -66.6405 -66.6392 -66.6378
   -38.8528 -38.8415 -38.8403 -38.8188 -38.7231 -38.7223 -38.7168 -38.7126
   -38.6982 -38.6896 -38.6870 -38.6864 -38.6545 -38.6457 -38.6451 -38.6059
   -38.5997 -38.5880 -38.5875 -38.5821 -38.5808 -38.5636 -38.5624 -38.5488
   -38.5136 -38.5133 -38.5121 -38.5012 -38.4769 -38.4300 -38.4298 -38.4295
   -38.4218 -38.4171 -38.4078 -38.4053 -38.4052 -38.3984 -38.3981 -38.3893
   -38.3829 -38.3759 -38.3757 -38.3750 -38.3577 -38.3519 -38.3517 -38.3306
   -38.3305 -38.3261 -38.3228 -38.3215 -38.3154 -38.3140 -38.3114 -38.3113
   -38.3080 -38.3030 -38.3008 -38.2949 -38.2934 -38.2914 -38.2910 -38.2573
   -38.2536 -38.2521 -38.2514 -38.2436 -38.2431 -38.2421 -38.2405 -38.2305
   -38.2272 -38.2252 -38.2244 -38.2235 -38.1981 -38.1935 -38.1930 -38.1844
   -38.1837 -38.1822 -38.1819 -38.1778 -38.1714 -38.1431 -38.1417 -38.1401
   -38.1298 -38.1274 -38.1209 -38.1197 -38.1185 -38.1118 -38.1100 -38.1064
   -38.0977 -38.0860 -38.0839 -38.0824 -38.0767 -38.0641 -38.0633 -38.0585
   -38.0436 -38.0317 -38.0313 -38.0277 -38.0174 -38.0169 -38.0093 -38.0023
   -38.0007 -37.9959 -37.9938 -37.9905 -37.9785 -37.9765 -37.9754 -37.9719
   -37.9687 -37.9666 -37.9586 -37.9585 -37.9335 -37.9333 -37.9218 -37.9209
   -37.9193 -37.9099 -37.9097 -37.9020 -37.8815 -37.8751 -37.8721 -37.8713
   -37.7532 -37.7517 -37.7484 -37.7395 -37.7370 -37.7270 -37.7267 -37.7198
   -12.3761 -12.1632 -12.1624 -11.9691 -11.8350 -11.8337 -11.7854 -11.6179
   -11.5927 -11.4818 -11.4629 -11.4623 -11.4470 -11.3819 -11.2700 -11.2683
   -11.2478 -11.2476 -11.1575 -11.1401  -8.7812  -8.7538  -8.7537  -8.7322
    -7.9497  -3.0423  -2.9449  -2.9438  -2.9277  -2.8160  -2.8149  -2.7740
    -2.7390  -2.6872  -2.6734  -2.6509  -2.6498  -2.6046  -2.4151  -2.2802
    -2.2789  -2.2669  -2.2419  -2.1891  -2.1872  -2.1451  -2.1430  -2.0168
    -1.8403  -1.8340  -1.7552  -1.7270  -1.6388  -1.5866  -1.5841  -1.5077
    -1.4832  -1.4639  -1.4357  -1.4292  -1.4258  -1.4245  -1.3656  -1.2480
    -1.2464  -1.2015  -1.2010  -1.1787  -1.1337  -1.0234  -1.0022  -0.9942
    -0.9521  -0.9371  -0.9254  -0.8983  -0.8870  -0.8680  -0.8281  -0.8128
    -0.7830  -0.7166  -0.6214  -0.6112  -0.6102  -0.5149  -0.1751  -0.1732
     0.8972   1.0799   1.0808   1.1806   1.3654   1.3817   1.3827   1.3838
     1.4274   1.5087   1.5092   1.5359   1.6025   1.6213   1.6233   1.6802
     1.7987   1.9170   1.9185   2.0058   2.0067   2.0699   2.0707   2.1288
     2.1363   2.1980   2.1988   2.2301   2.3045   2.3099   2.3449   2.3453
     2.3972   2.4460   2.5127   2.5381   2.5399   2.6244   2.6248   2.7408
     2.7433   2.7462   2.7770   2.7832   2.8800   2.8833   2.8852   2.9513
     3.1324   3.1960   3.2401   3.2442   3.2873   3.2885   3.2951   3.3811
     3.3860   3.3873   3.4024   3.5107   3.5305   3.5313   3.6032   3.6586
     3.6744   3.7027   3.7076   3.7393   3.7415   3.7976   3.8208   3.8348
     3.9707   3.9847   4.0018   4.0127   4.0202   4.0284   4.0347   4.0663
     4.0865   4.1369   4.1526   4.1848   4.1924   4.2438   4.2529   4.2813
     4.3103   4.3193   4.3460   4.3554   4.3848   4.3966   4.4145   4.4229
     4.5112   4.5143   4.5367   4.5481   4.5565   4.5607   4.5799   4.6268
     4.6804   4.8132   4.8146   4.8339   4.8378   4.8449   4.8587   4.8630
     4.9066   4.9245   4.9938   5.0054   5.0743   5.0843   5.1150   5.1190
     5.1293   5.2276   5.2471   5.2665   5.2723   5.3011   5.3358   5.3781
     5.3876   5.3885   5.4057   5.4360   5.4548   5.4677   5.4832   5.5406
     5.5521   5.5723   5.5858   5.6648   5.6822   5.6846   5.6868   5.6939
     5.7273   5.7289   5.7320   5.7396   5.7521   5.8176   5.8208   5.8282
     5.8326   5.8458   5.8637   5.8791   5.8867   5.9209   5.9312   5.9822
     5.9876   5.9951   6.0225   6.0260   6.0474   6.0525   6.0620   6.1313
     6.1333   6.1358   6.1671   6.1719   6.1916   6.2242   6.2461   6.2528
     6.2932   6.3038   6.3273   6.3278   6.3833   6.4153   6.4198   6.4537
     6.4555   6.4578   6.5189   6.5195   6.5482   6.5733   6.6061   6.6260
     6.6293   6.6369   6.6707   6.6798   6.6866   6.7503   6.8040   6.8081

          k =-0.2500 0.1443 0.0000 (108355 PWs)   bands (ev):

   -67.0555 -67.0314 -67.0223 -67.0217 -67.0048 -67.0040 -67.0035 -66.9976
   -66.9882 -66.9872 -66.9869 -66.9831 -66.9825 -66.9812 -66.9767 -66.9756
   -66.9716 -66.9708 -66.9677 -66.9632 -66.9618 -66.9606 -66.9580 -66.9570
   -66.8045 -66.7868 -66.7801 -66.7800 -66.7669 -66.7667 -66.7626 -66.7557
   -66.7556 -66.7531 -66.7492 -66.7487 -66.7049 -66.6913 -66.6853 -66.6841
   -66.6541 -66.6529 -66.6490 -66.6441 -66.6428 -66.6399 -66.6374 -66.6367
   -38.8595 -38.8396 -38.8315 -38.8302 -38.7283 -38.7283 -38.7273 -38.7015
   -38.6926 -38.6848 -38.6840 -38.6821 -38.6549 -38.6399 -38.6250 -38.6235
   -38.5953 -38.5939 -38.5843 -38.5736 -38.5715 -38.5700 -38.5633 -38.5413
   -38.5248 -38.5244 -38.5227 -38.5013 -38.4413 -38.4407 -38.4359 -38.4320
   -38.4282 -38.4220 -38.4219 -38.4198 -38.4147 -38.4074 -38.3911 -38.3869
   -38.3866 -38.3773 -38.3717 -38.3711 -38.3463 -38.3407 -38.3265 -38.3262
   -38.3258 -38.3247 -38.3243 -38.3240 -38.3183 -38.3122 -38.3083 -38.3071
   -38.3053 -38.3042 -38.2945 -38.2929 -38.2918 -38.2848 -38.2754 -38.2746
   -38.2685 -38.2679 -38.2676 -38.2552 -38.2516 -38.2511 -38.2509 -38.2163
   -38.2151 -38.2138 -38.2125 -38.2113 -38.2032 -38.2012 -38.2004 -38.1880
   -38.1812 -38.1799 -38.1794 -38.1637 -38.1568 -38.1563 -38.1437 -38.1433
   -38.1319 -38.1279 -38.1226 -38.1197 -38.1147 -38.1123 -38.1074 -38.1017
   -38.0993 -38.0894 -38.0883 -38.0865 -38.0851 -38.0693 -38.0685 -38.0650
   -38.0336 -38.0290 -38.0270 -38.0191 -38.0188 -38.0149 -38.0044 -38.0033
   -38.0017 -38.0009 -38.0005 -37.9845 -37.9811 -37.9807 -37.9799 -37.9723
   -37.9700 -37.9615 -37.9612 -37.9573 -37.9314 -37.9277 -37.9274 -37.9187
   -37.9186 -37.9157 -37.9054 -37.8980 -37.8850 -37.8750 -37.8707 -37.8697
   -37.7573 -37.7562 -37.7543 -37.7340 -37.7329 -37.7291 -37.7230 -37.7164
   -12.4964 -12.0692 -12.0477 -11.9127 -11.9122 -11.7811 -11.6936 -11.6933
   -11.6187 -11.6186 -11.5391 -11.3926 -11.3923 -11.3443 -11.3245 -11.3245
   -11.3133 -11.2600 -11.0940 -11.0753  -8.7710  -8.7709  -8.7596  -8.7188
    -7.9497  -3.0289  -3.0274  -2.9875  -2.8756  -2.8047  -2.7923  -2.7655
    -2.7642  -2.7622  -2.6469  -2.6456  -2.4951  -2.4567  -2.4103  -2.4063
    -2.4058  -2.3469  -2.2941  -2.2644  -2.2621  -2.2166  -2.0163  -1.8281
    -1.8257  -1.7830  -1.6914  -1.6900  -1.6345  -1.5414  -1.5402  -1.4975
    -1.4810  -1.4518  -1.4501  -1.4279  -1.3818  -1.3806  -1.3696  -1.3129
    -1.3120  -1.2965  -1.1823  -1.1430  -1.1235  -1.0745  -1.0283  -0.9724
    -0.9595  -0.9531  -0.9105  -0.8933  -0.8926  -0.8634  -0.8487  -0.8250
    -0.7662  -0.7125  -0.7049  -0.5643  -0.5196  -0.5193  -0.1748  -0.1730
     0.7208   1.1285   1.1600   1.1601   1.3992   1.3993   1.4097   1.4115
     1.4777   1.4950   1.4953   1.5140   1.5762   1.6157   1.6166   1.6292
     1.7329   1.7342   1.7772   2.0166   2.0174   2.0610   2.1123   2.1132
     2.1657   2.2186   2.2534   2.2542   2.2786   2.3761   2.3779   2.3945
     2.4061   2.4069   2.4684   2.5001   2.5012   2.5202   2.5414   2.5704
     2.6737   2.7532   2.7537   2.8164   2.9688   3.0203   3.0848   3.1538
     3.1544   3.1839   3.1900   3.2174   3.3157   3.3172   3.3454   3.3506
     3.3519   3.3937   3.4698   3.5475   3.5522   3.5617   3.5911   3.6360
     3.6543   3.6647   3.6709   3.6838   3.7322   3.7335   3.7357   3.8190
     3.9456   3.9638   3.9710   3.9763   3.9918   3.9955   4.0074   4.0970
     4.1228   4.1314   4.1931   4.1985   4.2323   4.2501   4.2556   4.2608
     4.2884   4.3143   4.3326   4.3345   4.3511   4.4310   4.4369   4.4474
     4.4535   4.5147   4.5256   4.6267   4.6468   4.6680   4.6962   4.7218
     4.7245   4.7374   4.7866   4.7996   4.8293   4.8812   4.8922   4.8957
     4.9272   4.9297   4.9562   5.0184   5.0424   5.0906   5.0983   5.1368
     5.1489   5.1864   5.2147   5.2516   5.2800   5.3102   5.3147   5.4049
     5.4223   5.4226   5.4243   5.4732   5.5025   5.5083   5.5181   5.5281
     5.5316   5.6276   5.6574   5.6730   5.7041   5.7075   5.7123   5.7143
     5.7256   5.7634   5.7680   5.7827   5.7885   5.8392   5.8421   5.8441
     5.8487   5.8994   5.9104   5.9189   5.9262   5.9332   5.9710   5.9729
     5.9754   5.9914   5.9999   6.0008   6.0146   6.0156   6.0472   6.1329
     6.1588   6.1607   6.1799   6.2049   6.2059   6.2103   6.2132   6.2636
     6.2685   6.2693   6.2748   6.3211   6.3513   6.3557   6.3588   6.4059
     6.4196   6.4240   6.4893   6.4913   6.5052   6.5111   6.6030   6.6071
     6.6290   6.6407   6.6542   6.6728   6.6940   6.7031   6.7538   6.7552

          k = 0.2500 0.1443 0.0000 (108355 PWs)   bands (ev):

   -67.0555 -67.0314 -67.0223 -67.0217 -67.0048 -67.0040 -67.0035 -66.9976
   -66.9882 -66.9872 -66.9869 -66.9831 -66.9825 -66.9812 -66.9767 -66.9756
   -66.9716 -66.9708 -66.9677 -66.9632 -66.9618 -66.9606 -66.9580 -66.9570
   -66.8045 -66.7868 -66.7801 -66.7800 -66.7669 -66.7667 -66.7626 -66.7557
   -66.7556 -66.7531 -66.7492 -66.7487 -66.7049 -66.6913 -66.6853 -66.6841
   -66.6541 -66.6529 -66.6490 -66.6441 -66.6428 -66.6399 -66.6374 -66.6367
   -38.8595 -38.8396 -38.8315 -38.8302 -38.7283 -38.7283 -38.7273 -38.7015
   -38.6926 -38.6848 -38.6840 -38.6821 -38.6549 -38.6400 -38.6250 -38.6235
   -38.5953 -38.5939 -38.5843 -38.5736 -38.5715 -38.5700 -38.5633 -38.5413
   -38.5247 -38.5244 -38.5227 -38.5013 -38.4413 -38.4407 -38.4359 -38.4320
   -38.4282 -38.4220 -38.4219 -38.4198 -38.4147 -38.4074 -38.3911 -38.3869
   -38.3866 -38.3773 -38.3717 -38.3711 -38.3463 -38.3407 -38.3265 -38.3262
   -38.3258 -38.3247 -38.3243 -38.3240 -38.3183 -38.3122 -38.3083 -38.3071
   -38.3053 -38.3042 -38.2945 -38.2929 -38.2918 -38.2848 -38.2754 -38.2746
   -38.2685 -38.2679 -38.2676 -38.2552 -38.2516 -38.2511 -38.2509 -38.2163
   -38.2151 -38.2138 -38.2125 -38.2113 -38.2032 -38.2012 -38.2004 -38.1880
   -38.1812 -38.1799 -38.1794 -38.1637 -38.1568 -38.1563 -38.1437 -38.1433
   -38.1319 -38.1279 -38.1226 -38.1198 -38.1147 -38.1123 -38.1074 -38.1017
   -38.0993 -38.0894 -38.0883 -38.0865 -38.0851 -38.0693 -38.0685 -38.0650
   -38.0336 -38.0290 -38.0270 -38.0191 -38.0188 -38.0149 -38.0044 -38.0033
   -38.0017 -38.0009 -38.0005 -37.9845 -37.9811 -37.9807 -37.9799 -37.9723
   -37.9700 -37.9615 -37.9612 -37.9573 -37.9314 -37.9277 -37.9274 -37.9187
   -37.9186 -37.9157 -37.9054 -37.8980 -37.8850 -37.8750 -37.8707 -37.8697
   -37.7573 -37.7562 -37.7543 -37.7340 -37.7329 -37.7291 -37.7230 -37.7164
   -12.4964 -12.0692 -12.0477 -11.9127 -11.9122 -11.7811 -11.6936 -11.6933
   -11.6187 -11.6186 -11.5391 -11.3926 -11.3923 -11.3443 -11.3246 -11.3245
   -11.3133 -11.2600 -11.0940 -11.0753  -8.7710  -8.7709  -8.7596  -8.7188
    -7.9497  -3.0289  -3.0274  -2.9875  -2.8756  -2.8047  -2.7923  -2.7655
    -2.7642  -2.7622  -2.6469  -2.6456  -2.4951  -2.4567  -2.4103  -2.4063
    -2.4058  -2.3469  -2.2941  -2.2644  -2.2621  -2.2166  -2.0163  -1.8281
    -1.8257  -1.7830  -1.6914  -1.6900  -1.6345  -1.5415  -1.5402  -1.4975
    -1.4810  -1.4518  -1.4501  -1.4279  -1.3818  -1.3806  -1.3696  -1.3129
    -1.3120  -1.2965  -1.1823  -1.1430  -1.1235  -1.0745  -1.0283  -0.9723
    -0.9595  -0.9531  -0.9105  -0.8933  -0.8926  -0.8634  -0.8487  -0.8250
    -0.7662  -0.7125  -0.7049  -0.5643  -0.5196  -0.5193  -0.1748  -0.1730
     0.7208   1.1285   1.1600   1.1602   1.3992   1.3993   1.4097   1.4115
     1.4777   1.4950   1.4953   1.5140   1.5762   1.6157   1.6166   1.6292
     1.7329   1.7342   1.7772   2.0166   2.0174   2.0610   2.1123   2.1132
     2.1657   2.2186   2.2534   2.2542   2.2786   2.3761   2.3779   2.3945
     2.4061   2.4069   2.4684   2.5000   2.5012   2.5202   2.5414   2.5704
     2.6737   2.7532   2.7537   2.8164   2.9688   3.0203   3.0848   3.1538
     3.1544   3.1839   3.1900   3.2174   3.3157   3.3172   3.3454   3.3506
     3.3519   3.3936   3.4698   3.5474   3.5522   3.5617   3.5911   3.6360
     3.6543   3.6647   3.6709   3.6838   3.7322   3.7335   3.7357   3.8190
     3.9456   3.9638   3.9710   3.9763   3.9918   3.9955   4.0074   4.0970
     4.1228   4.1314   4.1931   4.1985   4.2323   4.2501   4.2556   4.2608
     4.2884   4.3143   4.3326   4.3345   4.3511   4.4310   4.4369   4.4474
     4.4535   4.5147   4.5256   4.6267   4.6468   4.6680   4.6962   4.7218
     4.7245   4.7374   4.7866   4.7996   4.8293   4.8812   4.8921   4.8957
     4.9273   4.9297   4.9562   5.0184   5.0424   5.0906   5.0983   5.1368
     5.1489   5.1864   5.2147   5.2516   5.2800   5.3102   5.3147   5.4049
     5.4223   5.4226   5.4243   5.4732   5.5025   5.5083   5.5181   5.5281
     5.5316   5.6276   5.6574   5.6730   5.7041   5.7075   5.7123   5.7144
     5.7256   5.7634   5.7680   5.7827   5.7885   5.8392   5.8421   5.8441
     5.8487   5.8994   5.9104   5.9189   5.9262   5.9332   5.9710   5.9729
     5.9754   5.9914   5.9999   6.0008   6.0146   6.0156   6.0471   6.1329
     6.1588   6.1607   6.1799   6.2049   6.2059   6.2103   6.2132   6.2636
     6.2685   6.2693   6.2748   6.3211   6.3513   6.3557   6.3588   6.4059
     6.4196   6.4240   6.4893   6.4913   6.5051   6.5112   6.6030   6.6072
     6.6290   6.6405   6.6542   6.6730   6.6942   6.7031   6.7541   6.7561

          k = 0.5000-0.2887 0.0000 (108310 PWs)   bands (ev):

   -67.0460 -67.0453 -67.0244 -67.0238 -66.9984 -66.9974 -66.9963 -66.9958
   -66.9931 -66.9925 -66.9850 -66.9847 -66.9838 -66.9827 -66.9797 -66.9793
   -66.9671 -66.9667 -66.9665 -66.9644 -66.9619 -66.9606 -66.9596 -66.9580
   -66.7972 -66.7971 -66.7816 -66.7814 -66.7620 -66.7618 -66.7592 -66.7591
   -66.7543 -66.7541 -66.7511 -66.7509 -66.7006 -66.6964 -66.6863 -66.6847
   -66.6527 -66.6498 -66.6480 -66.6444 -66.6414 -66.6411 -66.6393 -66.6378
   -38.8508 -38.8496 -38.8272 -38.8258 -38.7224 -38.7210 -38.7167 -38.7162
   -38.6926 -38.6911 -38.6889 -38.6878 -38.6540 -38.6533 -38.6271 -38.6255
   -38.5915 -38.5898 -38.5812 -38.5806 -38.5764 -38.5746 -38.5561 -38.5546
   -38.5175 -38.5171 -38.5052 -38.5050 -38.4507 -38.4501 -38.4276 -38.4275
   -38.4218 -38.4216 -38.4117 -38.4113 -38.4002 -38.3999 -38.3889 -38.3886
   -38.3831 -38.3829 -38.3746 -38.3740 -38.3615 -38.3613 -38.3290 -38.3288
   -38.3288 -38.3286 -38.3239 -38.3234 -38.3205 -38.3204 -38.3126 -38.3106
   -38.3045 -38.3041 -38.2988 -38.2961 -38.2948 -38.2945 -38.2712 -38.2707
   -38.2546 -38.2515 -38.2458 -38.2445 -38.2432 -38.2427 -38.2404 -38.2396
   -38.2253 -38.2248 -38.2228 -38.2213 -38.1945 -38.1931 -38.1922 -38.1920
   -38.1884 -38.1881 -38.1749 -38.1743 -38.1578 -38.1570 -38.1393 -38.1383
   -38.1319 -38.1234 -38.1222 -38.1189 -38.1160 -38.1141 -38.1041 -38.1033
   -38.0985 -38.0971 -38.0824 -38.0813 -38.0779 -38.0754 -38.0538 -38.0529
   -38.0429 -38.0425 -38.0296 -38.0290 -38.0174 -38.0170 -38.0020 -38.0007
   -37.9988 -37.9983 -37.9933 -37.9921 -37.9780 -37.9776 -37.9750 -37.9740
   -37.9644 -37.9641 -37.9633 -37.9631 -37.9292 -37.9288 -37.9249 -37.9248
   -37.9146 -37.9145 -37.9055 -37.9053 -37.8811 -37.8754 -37.8722 -37.8713
   -37.7545 -37.7528 -37.7439 -37.7417 -37.7334 -37.7330 -37.7226 -37.7215
   -12.3198 -12.3190 -11.9473 -11.9468 -11.9334 -11.9321 -11.7014 -11.7011
   -11.5311 -11.5308 -11.4064 -11.4054 -11.3921 -11.3918 -11.3692 -11.3691
   -11.1863 -11.1840 -11.1679 -11.1678  -8.7726  -8.7725  -8.7380  -8.7378
    -7.9497  -2.9930  -2.9901  -2.9005  -2.8998  -2.8349  -2.8328  -2.8297
    -2.8294  -2.7071  -2.7067  -2.5902  -2.5894  -2.4262  -2.4242  -2.3606
    -2.3590  -2.3056  -2.3042  -2.1810  -2.1777  -2.0972  -2.0947  -1.9018
    -1.9011  -1.7616  -1.7580  -1.7162  -1.7134  -1.6314  -1.6266  -1.5059
    -1.5036  -1.4968  -1.4961  -1.3799  -1.3732  -1.3234  -1.3227  -1.3065
    -1.3064  -1.1938  -1.1909  -1.1102  -1.1085  -1.0996  -1.0905  -0.9706
    -0.9621  -0.9245  -0.9150  -0.8992  -0.8963  -0.8509  -0.7928  -0.7758
    -0.7306  -0.7183  -0.6807  -0.6766  -0.5434  -0.5427  -0.1751  -0.1730
     0.9622   0.9652   1.1480   1.1481   1.3782   1.3802   1.3996   1.3997
     1.4752   1.4753   1.4915   1.4921   1.6333   1.6353   1.6452   1.6479
     1.8715   1.8725   1.8781   1.8789   2.0497   2.0525   2.0892   2.0906
     2.1816   2.1823   2.3133   2.3136   2.3365   2.3371   2.3685   2.3694
     2.4073   2.4084   2.4206   2.4215   2.5287   2.5306   2.6975   2.7012
     2.7552   2.7553   2.7751   2.7781   2.9719   2.9743   2.9915   2.9924
     3.0614   3.0616   3.1568   3.1608   3.2801   3.2823   3.3418   3.3431
     3.3753   3.3767   3.4715   3.4732   3.5739   3.5777   3.6252   3.6272
     3.6905   3.6933   3.7680   3.7708   3.8185   3.8266   3.8589   3.8622
     3.8931   3.8972   3.9218   3.9298   3.9578   3.9602   4.0766   4.0919
     4.1020   4.1048   4.2223   4.2356   4.2592   4.2692   4.2909   4.2964
     4.3059   4.3118   4.3165   4.3309   4.3914   4.4096   4.4205   4.4238
     4.4306   4.4349   4.5615   4.5642   4.5678   4.5980   4.6314   4.6316
     4.6507   4.6524   4.7638   4.7848   4.9385   4.9436   4.9445   4.9472
     4.9503   4.9621   5.0164   5.0328   5.0717   5.0721   5.0886   5.0930
     5.1383   5.1418   5.2215   5.2290   5.2968   5.2972   5.3091   5.3105
     5.3915   5.3928   5.4191   5.4342   5.4773   5.4784   5.5165   5.5287
     5.5427   5.5461   5.5503   5.5740   5.6613   5.6620   5.6981   5.7015
     5.7168   5.7209   5.7386   5.7466   5.7996   5.8010   5.8293   5.8350
     5.8486   5.8508   5.8647   5.8679   5.9315   5.9355   5.9570   5.9578
     5.9945   6.0021   6.0309   6.0458   6.1121   6.1158   6.1254   6.1309
     6.1329   6.1411   6.1518   6.1569   6.1662   6.1669   6.2957   6.2978
     6.2990   6.3125   6.3401   6.3423   6.3819   6.3855   6.4007   6.4011
     6.4165   6.4182   6.4494   6.4504   6.5700   6.5720   6.5752   6.5764
     6.6108   6.6157   6.6655   6.6757   6.8067   6.8199   6.8219   6.9013

          k =-0.5000-0.2887 0.0000 (108310 PWs)   bands (ev):

   -67.0460 -67.0453 -67.0244 -67.0238 -66.9984 -66.9974 -66.9963 -66.9958
   -66.9931 -66.9925 -66.9850 -66.9847 -66.9838 -66.9827 -66.9797 -66.9793
   -66.9671 -66.9667 -66.9665 -66.9644 -66.9619 -66.9606 -66.9596 -66.9579
   -66.7973 -66.7971 -66.7816 -66.7814 -66.7620 -66.7618 -66.7592 -66.7591
   -66.7543 -66.7541 -66.7511 -66.7509 -66.7006 -66.6965 -66.6863 -66.6847
   -66.6527 -66.6498 -66.6480 -66.6444 -66.6414 -66.6412 -66.6393 -66.6378
   -38.8508 -38.8496 -38.8272 -38.8258 -38.7224 -38.7210 -38.7167 -38.7162
   -38.6926 -38.6911 -38.6889 -38.6878 -38.6540 -38.6533 -38.6271 -38.6255
   -38.5915 -38.5898 -38.5812 -38.5806 -38.5764 -38.5746 -38.5561 -38.5546
   -38.5175 -38.5171 -38.5052 -38.5050 -38.4507 -38.4501 -38.4276 -38.4275
   -38.4218 -38.4216 -38.4117 -38.4113 -38.4002 -38.3999 -38.3889 -38.3886
   -38.3831 -38.3829 -38.3746 -38.3740 -38.3615 -38.3613 -38.3290 -38.3288
   -38.3288 -38.3286 -38.3239 -38.3234 -38.3205 -38.3204 -38.3126 -38.3106
   -38.3045 -38.3041 -38.2988 -38.2961 -38.2948 -38.2945 -38.2712 -38.2707
   -38.2546 -38.2515 -38.2458 -38.2445 -38.2432 -38.2427 -38.2404 -38.2396
   -38.2253 -38.2248 -38.2228 -38.2213 -38.1945 -38.1931 -38.1922 -38.1920
   -38.1884 -38.1881 -38.1749 -38.1743 -38.1578 -38.1570 -38.1393 -38.1383
   -38.1319 -38.1234 -38.1222 -38.1189 -38.1160 -38.1141 -38.1041 -38.1033
   -38.0985 -38.0971 -38.0824 -38.0813 -38.0779 -38.0754 -38.0538 -38.0529
   -38.0429 -38.0425 -38.0296 -38.0290 -38.0174 -38.0171 -38.0020 -38.0007
   -37.9988 -37.9983 -37.9933 -37.9921 -37.9780 -37.9776 -37.9750 -37.9740
   -37.9644 -37.9641 -37.9633 -37.9631 -37.9292 -37.9288 -37.9249 -37.9248
   -37.9146 -37.9145 -37.9055 -37.9053 -37.8811 -37.8754 -37.8722 -37.8713
   -37.7545 -37.7528 -37.7439 -37.7417 -37.7334 -37.7330 -37.7226 -37.7215
   -12.3198 -12.3190 -11.9473 -11.9468 -11.9334 -11.9321 -11.7014 -11.7011
   -11.5311 -11.5308 -11.4064 -11.4054 -11.3921 -11.3918 -11.3692 -11.3691
   -11.1863 -11.1840 -11.1679 -11.1678  -8.7726  -8.7725  -8.7380  -8.7378
    -7.9497  -2.9930  -2.9901  -2.9005  -2.8998  -2.8349  -2.8328  -2.8297
    -2.8294  -2.7071  -2.7067  -2.5902  -2.5894  -2.4262  -2.4242  -2.3606
    -2.3589  -2.3056  -2.3042  -2.1810  -2.1777  -2.0972  -2.0947  -1.9018
    -1.9011  -1.7616  -1.7580  -1.7162  -1.7134  -1.6314  -1.6266  -1.5059
    -1.5036  -1.4968  -1.4961  -1.3799  -1.3732  -1.3234  -1.3227  -1.3065
    -1.3064  -1.1939  -1.1909  -1.1102  -1.1085  -1.0997  -1.0905  -0.9706
    -0.9621  -0.9245  -0.9150  -0.8992  -0.8963  -0.8509  -0.7928  -0.7758
    -0.7306  -0.7183  -0.6807  -0.6766  -0.5434  -0.5426  -0.1751  -0.1730
     0.9622   0.9652   1.1480   1.1481   1.3782   1.3802   1.3996   1.3997
     1.4752   1.4753   1.4915   1.4921   1.6333   1.6353   1.6452   1.6479
     1.8714   1.8725   1.8781   1.8789   2.0497   2.0525   2.0892   2.0906
     2.1816   2.1823   2.3133   2.3136   2.3365   2.3371   2.3684   2.3694
     2.4073   2.4084   2.4206   2.4215   2.5287   2.5306   2.6975   2.7012
     2.7552   2.7553   2.7751   2.7781   2.9719   2.9743   2.9915   2.9924
     3.0614   3.0616   3.1568   3.1608   3.2801   3.2823   3.3418   3.3431
     3.3753   3.3767   3.4715   3.4732   3.5739   3.5777   3.6252   3.6272
     3.6905   3.6934   3.7680   3.7708   3.8185   3.8266   3.8589   3.8622
     3.8931   3.8972   3.9218   3.9298   3.9578   3.9602   4.0766   4.0919
     4.1020   4.1047   4.2223   4.2356   4.2592   4.2692   4.2909   4.2964
     4.3059   4.3118   4.3165   4.3309   4.3914   4.4095   4.4205   4.4238
     4.4306   4.4349   4.5615   4.5642   4.5678   4.5980   4.6314   4.6316
     4.6507   4.6524   4.7638   4.7848   4.9385   4.9436   4.9445   4.9472
     4.9503   4.9621   5.0164   5.0328   5.0717   5.0721   5.0886   5.0930
     5.1383   5.1418   5.2215   5.2290   5.2968   5.2972   5.3091   5.3105
     5.3915   5.3928   5.4191   5.4342   5.4773   5.4784   5.5165   5.5287
     5.5427   5.5461   5.5502   5.5740   5.6613   5.6620   5.6981   5.7015
     5.7168   5.7209   5.7386   5.7466   5.7996   5.8010   5.8292   5.8350
     5.8486   5.8508   5.8647   5.8679   5.9315   5.9355   5.9570   5.9578
     5.9945   6.0021   6.0309   6.0458   6.1121   6.1158   6.1254   6.1309
     6.1329   6.1411   6.1518   6.1569   6.1662   6.1669   6.2957   6.2978
     6.2990   6.3125   6.3401   6.3423   6.3819   6.3855   6.4007   6.4011
     6.4165   6.4182   6.4493   6.4504   6.5699   6.5719   6.5751   6.5764
     6.6107   6.6156   6.6655   6.6756   6.8063   6.8076   6.8189   6.8221

          k =-0.2500 0.4330 0.0000 (108308 PWs)   bands (ev):

   -67.0488 -67.0371 -67.0365 -67.0130 -67.0051 -67.0001 -66.9955 -66.9923
   -66.9914 -66.9906 -66.9900 -66.9844 -66.9842 -66.9808 -66.9798 -66.9760
   -66.9723 -66.9669 -66.9644 -66.9638 -66.9615 -66.9606 -66.9594 -66.9585
   -66.7995 -66.7907 -66.7906 -66.7740 -66.7673 -66.7612 -66.7580 -66.7578
   -66.7540 -66.7538 -66.7519 -66.7509 -66.7014 -66.6933 -66.6909 -66.6822
   -66.6527 -66.6510 -66.6461 -66.6444 -66.6430 -66.6405 -66.6392 -66.6378
   -38.8528 -38.8415 -38.8403 -38.8188 -38.7231 -38.7223 -38.7168 -38.7126
   -38.6982 -38.6896 -38.6870 -38.6864 -38.6545 -38.6457 -38.6451 -38.6059
   -38.5997 -38.5880 -38.5875 -38.5821 -38.5808 -38.5636 -38.5624 -38.5488
   -38.5136 -38.5133 -38.5121 -38.5012 -38.4769 -38.4300 -38.4298 -38.4295
   -38.4218 -38.4171 -38.4078 -38.4053 -38.4052 -38.3984 -38.3981 -38.3893
   -38.3829 -38.3759 -38.3757 -38.3750 -38.3577 -38.3519 -38.3517 -38.3306
   -38.3305 -38.3261 -38.3228 -38.3215 -38.3154 -38.3140 -38.3114 -38.3113
   -38.3080 -38.3030 -38.3008 -38.2949 -38.2935 -38.2914 -38.2910 -38.2573
   -38.2536 -38.2521 -38.2514 -38.2436 -38.2431 -38.2421 -38.2405 -38.2305
   -38.2272 -38.2252 -38.2244 -38.2235 -38.1981 -38.1935 -38.1930 -38.1844
   -38.1837 -38.1822 -38.1819 -38.1778 -38.1714 -38.1431 -38.1417 -38.1401
   -38.1298 -38.1274 -38.1209 -38.1197 -38.1185 -38.1118 -38.1101 -38.1064
   -38.0977 -38.0860 -38.0839 -38.0824 -38.0767 -38.0641 -38.0633 -38.0585
   -38.0436 -38.0317 -38.0313 -38.0277 -38.0174 -38.0169 -38.0093 -38.0023
   -38.0007 -37.9959 -37.9938 -37.9905 -37.9785 -37.9765 -37.9754 -37.9719
   -37.9687 -37.9666 -37.9586 -37.9585 -37.9335 -37.9333 -37.9218 -37.9209
   -37.9193 -37.9099 -37.9097 -37.9020 -37.8815 -37.8751 -37.8721 -37.8713
   -37.7532 -37.7517 -37.7484 -37.7395 -37.7371 -37.7270 -37.7267 -37.7198
   -12.3761 -12.1632 -12.1624 -11.9691 -11.8350 -11.8337 -11.7854 -11.6179
   -11.5927 -11.4818 -11.4630 -11.4623 -11.4470 -11.3819 -11.2700 -11.2683
   -11.2478 -11.2476 -11.1575 -11.1401  -8.7812  -8.7538  -8.7537  -8.7322
    -7.9497  -3.0423  -2.9449  -2.9438  -2.9277  -2.8160  -2.8149  -2.7740
    -2.7390  -2.6872  -2.6734  -2.6509  -2.6498  -2.6046  -2.4151  -2.2802
    -2.2789  -2.2669  -2.2419  -2.1891  -2.1872  -2.1451  -2.1430  -2.0168
    -1.8403  -1.8340  -1.7552  -1.7270  -1.6388  -1.5866  -1.5841  -1.5077
    -1.4832  -1.4639  -1.4357  -1.4292  -1.4258  -1.4245  -1.3656  -1.2480
    -1.2464  -1.2015  -1.2010  -1.1787  -1.1337  -1.0234  -1.0022  -0.9942
    -0.9521  -0.9371  -0.9254  -0.8983  -0.8870  -0.8680  -0.8281  -0.8128
    -0.7830  -0.7166  -0.6214  -0.6112  -0.6102  -0.5149  -0.1751  -0.1732
     0.8972   1.0799   1.0808   1.1806   1.3654   1.3817   1.3827   1.3838
     1.4273   1.5087   1.5092   1.5359   1.6025   1.6213   1.6233   1.6802
     1.7987   1.9170   1.9185   2.0058   2.0067   2.0699   2.0707   2.1288
     2.1363   2.1980   2.1988   2.2301   2.3045   2.3099   2.3449   2.3453
     2.3972   2.4460   2.5127   2.5381   2.5399   2.6244   2.6248   2.7407
     2.7433   2.7462   2.7770   2.7832   2.8800   2.8833   2.8852   2.9513
     3.1324   3.1960   3.2401   3.2442   3.2873   3.2886   3.2951   3.3811
     3.3860   3.3873   3.4024   3.5107   3.5305   3.5313   3.6032   3.6586
     3.6744   3.7027   3.7076   3.7392   3.7415   3.7976   3.8208   3.8348
     3.9707   3.9848   4.0018   4.0128   4.0202   4.0284   4.0347   4.0663
     4.0865   4.1369   4.1526   4.1848   4.1924   4.2438   4.2529   4.2813
     4.3103   4.3193   4.3460   4.3554   4.3848   4.3966   4.4145   4.4229
     4.5112   4.5143   4.5367   4.5482   4.5565   4.5607   4.5799   4.6268
     4.6804   4.8132   4.8146   4.8339   4.8378   4.8449   4.8587   4.8630
     4.9066   4.9245   4.9938   5.0054   5.0744   5.0843   5.1150   5.1190
     5.1293   5.2276   5.2471   5.2665   5.2723   5.3011   5.3358   5.3781
     5.3876   5.3885   5.4057   5.4360   5.4548   5.4677   5.4832   5.5406
     5.5521   5.5723   5.5859   5.6648   5.6822   5.6846   5.6868   5.6939
     5.7273   5.7289   5.7320   5.7396   5.7521   5.8177   5.8208   5.8282
     5.8326   5.8458   5.8637   5.8791   5.8867   5.9209   5.9312   5.9822
     5.9876   5.9951   6.0225   6.0260   6.0474   6.0525   6.0620   6.1313
     6.1333   6.1358   6.1671   6.1719   6.1916   6.2242   6.2461   6.2528
     6.2932   6.3038   6.3273   6.3278   6.3833   6.4153   6.4198   6.4537
     6.4555   6.4578   6.5189   6.5195   6.5481   6.5733   6.6061   6.6260
     6.6293   6.6369   6.6707   6.6798   6.6865   6.7503   6.8034   6.8067

[...]
     6.6480   6.6882   6.7133   6.7216   6.7311   6.7866   6.8412   6.8464

          k = 0.5000-0.0000 0.0000 (108308 PWs)   bands (ev):

   -67.0171 -67.0054 -67.0051 -66.9828 -66.9738 -66.9670 -66.9658 -66.9614
   -66.9605 -66.9582 -66.9575 -66.9556 -66.9551 -66.9522 -66.9500 -66.9426
   -66.9365 -66.9320 -66.9284 -66.9284 -66.9260 -66.9244 -66.9236 -66.9205
   -66.7748 -66.7668 -66.7667 -66.7559 -66.7292 -66.7253 -66.7242 -66.7239
   -66.7193 -66.7192 -66.7184 -66.7162 -66.6717 -66.6621 -66.6587 -66.6506
   -66.6272 -66.6264 -66.6121 -66.6096 -66.6063 -66.6045 -66.6026 -66.6025
   -38.8097 -38.7967 -38.7964 -38.7754 -38.6829 -38.6826 -38.6776 -38.6701
   -38.6601 -38.6575 -38.6551 -38.6533 -38.6221 -38.6087 -38.6077 -38.5716
   -38.5664 -38.5603 -38.5600 -38.5571 -38.5454 -38.5417 -38.5414 -38.5374
   -38.4807 -38.4799 -38.4799 -38.4736 -38.4646 -38.4579 -38.4567 -38.4562
   -38.4441 -38.3835 -38.3804 -38.3793 -38.3785 -38.3662 -38.3660 -38.3545
   -38.3518 -38.3483 -38.3472 -38.3433 -38.3270 -38.3191 -38.3189 -38.3149
   -38.3148 -38.3104 -38.3081 -38.3057 -38.2955 -38.2952 -38.2888 -38.2871
   -38.2800 -38.2777 -38.2729 -38.2627 -38.2612 -38.2584 -38.2583 -38.2305
   -38.2290 -38.2264 -38.2249 -38.2243 -38.2139 -38.2138 -38.2097 -38.1963
   -38.1942 -38.1933 -38.1921 -38.1879 -38.1692 -38.1630 -38.1616 -38.1542
   -38.1523 -38.1511 -38.1508 -38.1441 -38.1398 -38.1201 -38.1185 -38.1148
   -38.0998 -38.0932 -38.0818 -38.0808 -38.0756 -38.0732 -38.0702 -38.0676
   -38.0502 -38.0427 -38.0409 -38.0356 -38.0341 -38.0225 -38.0212 -38.0206
   -38.0049 -37.9914 -37.9867 -37.9852 -37.9749 -37.9734 -37.9675 -37.9660
   -37.9612 -37.9612 -37.9581 -37.9492 -37.9435 -37.9410 -37.9397 -37.9390
   -37.9360 -37.9359 -37.9311 -37.9307 -37.8930 -37.8927 -37.8868 -37.8820
   -37.8800 -37.8709 -37.8708 -37.8627 -37.8493 -37.8453 -37.8431 -37.8421
   -37.7241 -37.7230 -37.7155 -37.7059 -37.6989 -37.6916 -37.6868 -37.6842
   -12.2964 -12.0826 -12.0814 -11.8960 -11.7526 -11.7521 -11.7147 -11.5491
   -11.4702 -11.4134 -11.3909 -11.3903 -11.3277 -11.3190 -11.2037 -11.2024
   -11.1126 -11.1120 -11.0914 -10.9948  -9.2769  -9.2276  -9.2272  -9.1877
    -7.5212  -2.9737  -2.8722  -2.8674  -2.8525  -2.7365  -2.7355  -2.6854
    -2.6562  -2.6004  -2.5958  -2.5656  -2.5644  -2.5189  -2.3441  -2.1991
    -2.1949  -2.1932  -2.1447  -2.1081  -2.1078  -2.0581  -2.0571  -1.9328
    -1.7463  -1.7448  -1.6641  -1.6457  -1.5777  -1.5084  -1.5045  -1.4345
    -1.3879  -1.3823  -1.3552  -1.3546  -1.3529  -1.3393  -1.2759  -1.1602
    -1.1594  -1.1155  -1.1149  -1.0850  -1.0362  -0.9327  -0.9286  -0.9227
    -0.8701  -0.8545  -0.8362  -0.8184  -0.8018  -0.7985  -0.7090  -0.7041
    -0.6343  -0.5297  -0.5151  -0.5113  -0.3711  -0.1678   0.0912   0.0942
     0.7274   0.7831   0.7839   0.8213   1.0196   1.0213   1.0671   1.0702
     1.0705   1.1287   1.1353   1.1353   1.3326   1.4686   1.4777   1.6743
     1.8289   1.9339   1.9394   1.9666   2.0375   2.0407   2.0513   2.0538
     2.1414   2.2206   2.2216   2.2893   2.3637   2.3638   2.3984   2.3995
     2.4383   2.4986   2.5545   2.5675   2.5685   2.6577   2.6602   2.7122
     2.7823   2.7837   2.7970   2.8203   2.8963   2.8966   2.9119   3.0002
     3.1416   3.2327   3.2755   3.2801   3.3216   3.3231   3.3424   3.4172
     3.4231   3.4293   3.4381   3.5276   3.5287   3.5422   3.6298   3.6966
     3.6993   3.7316   3.7335   3.7607   3.7666   3.8330   3.8382   3.8494
     4.0116   4.0132   4.0216   4.0463   4.0482   4.0610   4.0669   4.0964
     4.1232   4.1732   4.1974   4.2113   4.2143   4.2736   4.2804   4.2842
     4.3159   4.3223   4.3689   4.3974   4.4136   4.4187   4.4369   4.4416
     4.5326   4.5337   4.5571   4.5639   4.5759   4.5899   4.6011   4.6466
     4.6731   4.8162   4.8380   4.8402   4.8747   4.8902   4.9032   4.9137
     4.9524   5.0112   5.0212   5.0314   5.1089   5.1133   5.1544   5.1701
     5.1717   5.2386   5.2719   5.2996   5.3228   5.3286   5.3607   5.4088
     5.4234   5.4247   5.4301   5.4656   5.4788   5.4981   5.5000   5.5808
     5.5844   5.5983   5.6194   5.7120   5.7147   5.7166   5.7171   5.7284
     5.7615   5.7633   5.7693   5.7855   5.7991   5.8430   5.8498   5.8570
     5.8607   5.8768   5.8880   5.9082   5.9126   5.9441   5.9720   6.0170
     6.0246   6.0455   6.0579   6.0654   6.0859   6.0906   6.1079   6.1716
     6.1751   6.1925   6.2197   6.2211   6.2528   6.2814   6.2828   6.3011
     6.3362   6.3434   6.3530   6.3564   6.4411   6.4537   6.4557   6.4959
     6.5004   6.5033   6.5481   6.5484   6.5875   6.6241   6.6418   6.6469
     6.6498   6.6920   6.7154   6.7188   6.7295   6.7881   6.8414   6.8435

     the Fermi energy is     5.1800 ev

!    total energy              =  -12616.46710250 Ry
     total all-electron energy =   -103594.970909 Ry
     estimated scf accuracy    <          8.1E-11 Ry
     smearing contrib. (-TS)   =       0.00937288 Ry
     internal energy E=F+TS    =  -12616.47647537 Ry

     The total energy is F=E-TS. E is the sum of the following terms:
     one-electron contribution =  -67083.20125079 Ry
     hartree contribution      =   33654.90379655 Ry
     xc contribution           =   -1216.03699918 Ry
     ewald contribution        =   25790.22168431 Ry
     DFT-D3 Dispersion         =      -1.08104054 Ry
     one-center paw contrib.   =   -3761.28266573 Ry

     convergence has been achieved in  39 iterations

     negative rho (up, down):  1.787E-04 0.000E+00

     Forces acting on atoms (cartesian axes, Ry/au):

     atom    1 type  1   force =    -0.00007566   -0.00024680   -0.00010363
     atom    2 type  1   force =    -0.00014009   -0.00011755   -0.00009960
     atom    3 type  1   force =     0.00013542    0.00015355    0.00009301
     atom    4 type  1   force =    -0.00012028   -0.00001306   -0.00011188
     atom    5 type  1   force =     0.00000042    0.00001100    0.00002732
     atom    6 type  1   force =    -0.00009844    0.00008242   -0.00019836
     atom    7 type  2   force =    -0.00018773    0.00019922    0.00014924
     atom    8 type  2   force =    -0.00002061    0.00000072    0.00078016
     atom    9 type  2   force =    -0.00008086   -0.00001726    0.00090144
     atom   10 type  1   force =     0.00008236    0.00039148   -0.00000422
     atom   11 type  1   force =    -0.00004791    0.00002977    0.00027345
     atom   12 type  1   force =     0.00018406   -0.00016307   -0.00026821
     atom   13 type  1   force =    -0.00007102   -0.00031091   -0.00021648
     atom   14 type  1   force =    -0.00039968   -0.00013831    0.00009022
     atom   15 type  1   force =     0.00029456   -0.00009291    0.00026588
     atom   16 type  2   force =     0.00007168   -0.00011865   -0.00080797
     atom   17 type  2   force =     0.00014589    0.00011366   -0.00017817
     atom   18 type  2   force =     0.00001167   -0.00028349   -0.00053246
     atom   19 type  1   force =     0.00006721   -0.00012995   -0.00024115
     atom   20 type  1   force =    -0.00013672    0.00000043   -0.00011695
     atom   21 type  1   force =    -0.00007562    0.00024688   -0.00010328
     atom   22 type  1   force =     0.00000095   -0.00001136    0.00002722
     atom   23 type  1   force =     0.00002688    0.00003290   -0.00030877
     atom   24 type  1   force =    -0.00004824   -0.00000013    0.00002484
     atom   25 type  2   force =     0.00012054    0.00000020    0.00011824
     atom   26 type  2   force =    -0.00008105    0.00001743    0.00090136
     atom   27 type  2   force =    -0.00006635    0.00004064    0.00060269
     atom   28 type  1   force =     0.00007296    0.00005124    0.00018997
     atom   29 type  1   force =    -0.00002987    0.00000026   -0.00047103
     atom   30 type  1   force =     0.00008160   -0.00039210   -0.00000451
     atom   31 type  1   force =    -0.00039947    0.00013788    0.00008964
     atom   32 type  1   force =    -0.00007928    0.00033768    0.00023475
     atom   33 type  1   force =    -0.00000899   -0.00000026    0.00020517
     atom   34 type  2   force =    -0.00014705   -0.00000024   -0.00092359
     atom   35 type  2   force =     0.00001172    0.00028294   -0.00053295
     atom   36 type  2   force =     0.00003670   -0.00006440    0.00026266
     atom   37 type  1   force =     0.00027780   -0.00028757   -0.00001576
     atom   38 type  1   force =    -0.00014003    0.00011742   -0.00010030
     atom   39 type  1   force =     0.00006807    0.00012967   -0.00024142
     atom   40 type  1   force =     0.00002684   -0.00003289   -0.00030867
     atom   41 type  1   force =    -0.00013376   -0.00003428   -0.00024989
     atom   42 type  1   force =    -0.00009915   -0.00008211   -0.00019822
     atom   43 type  2   force =    -0.00018712   -0.00019913    0.00014894
     atom   44 type  2   force =    -0.00006614   -0.00004084    0.00060312
     atom   45 type  2   force =    -0.00003809    0.00004369    0.00041047
     atom   46 type  1   force =     0.00022666   -0.00007954   -0.00012223
     atom   47 type  1   force =    -0.00004655   -0.00002936    0.00027293
     atom   48 type  1   force =     0.00007358   -0.00005121    0.00018945
     atom   49 type  1   force =    -0.00007880   -0.00033774    0.00023519
     atom   50 type  1   force =    -0.00009009    0.00032860    0.00014078
     atom   51 type  1   force =     0.00029440    0.00009324    0.00026564
     atom   52 type  2   force =     0.00007257    0.00011887   -0.00080795
     atom   53 type  2   force =     0.00003644    0.00006417    0.00026235
     atom   54 type  2   force =    -0.00010441   -0.00002979    0.00026850
     atom   55 type  1   force =     0.00013646   -0.00015335    0.00009295
     atom   56 type  1   force =    -0.00004928   -0.00000008   -0.00028725
     atom   57 type  1   force =     0.00027757    0.00028761   -0.00001596
     atom   58 type  1   force =    -0.00013399    0.00003513   -0.00024945
     atom   59 type  1   force =    -0.00012009    0.00001317   -0.00011162
     atom   60 type  1   force =    -0.00022624    0.00000029   -0.00029946
     atom   61 type  2   force =    -0.00019015    0.00000021    0.00005073
     atom   62 type  2   force =    -0.00003812   -0.00004328    0.00041016
     atom   63 type  2   force =    -0.00002065   -0.00000061    0.00078037
     atom   64 type  1   force =     0.00018419    0.00016293   -0.00026831
     atom   65 type  1   force =     0.00076649   -0.00000059   -0.00036390
     atom   66 type  1   force =     0.00022704    0.00007983   -0.00012148
     atom   67 type  1   force =    -0.00009009   -0.00032826    0.00014031
     atom   68 type  1   force =    -0.00007039    0.00031094   -0.00021625
     atom   69 type  1   force =     0.00030711   -0.00000006    0.00018770
     atom   70 type  2   force =     0.00019192    0.00000042   -0.00099613
     atom   71 type  2   force =    -0.00010412    0.00003006    0.00026890
     atom   72 type  2   force =     0.00014615   -0.00011362   -0.00017867
     atom   73 type  3   force =    -0.00006870   -0.00000231    0.00045920
     atom   74 type  4   force =     0.00013954   -0.00000321    0.00027999
     atom   75 type  4   force =     0.00012504   -0.00048143    0.00002488
     atom   76 type  4   force =     0.00012642    0.00048490    0.00001950
     atom   77 type  4   force =    -0.00063806    0.00000024   -0.00037324

     Total force =     0.003912     Total SCF correction =     0.000052
     Energy error            =      3.8E-05 Ry
     Gradient error          =      1.0E-03 Ry/Bohr

     bfgs converged in  27 scf cycles and  26 bfgs steps
     (criteria: energy <  1.0E-04 Ry, force <  1.0E-03 Ry/Bohr)

     End of BFGS Geometry Optimization

     Final energy             =  -12616.4671024994 Ry

     File tmp/CH4-H13_Rot30_ontop_/CH4-H13_Rot30_ontop_.bfgs deleted, as requested
Begin final coordinates

ATOMIC_POSITIONS (angstrom)
Cr              -1.5901320651        2.7669093101        8.2095554717
Cr               3.1947878835        0.0001261481        8.2123992953
Cr               0.7801914492        1.3518249507        8.2097503756
Cr               1.6357041108        2.8234812055        6.0808890044
Cr              -0.7425602491        1.2902470270        6.0805765756
Cr               1.4949990041       -0.0007387421        6.0835357081
N                0.0042403637       -0.0029788753        5.0400755493
N                2.3779485689        1.3716746154        7.0685263562
N                0.0039033152        2.7444366181        7.0619911205
Cr              -1.6551485779        2.8514441919       12.4840161556
Cr               3.2924484068       -0.0008892506       12.4839929042
Cr               0.7210428755        1.2476207120       12.4802548794
Cr               1.5900271831        2.7676048958       10.4180069162
Cr              -0.7783685520        1.3562708668       10.4075756861
Cr               1.5613774638        0.0006683713       10.4054073094
N                0.0012532352        0.0033633050        9.2956351008
N                2.3724266725        1.3720161244       11.5275660461
N                0.0024863816        2.7466077287       11.5430813950
Cr              -3.9679915864        6.8819775726        8.2136281970
Cr               0.8196853914        4.1148101874        8.2097950137
Cr              -1.5901322066        5.4627134068        8.2095534601
Cr              -0.7425610023        6.9393738959        6.0805765332
Cr              -3.1204148371        5.4056943580        6.0864823775
Cr              -0.8823270466        4.1148106035        6.0767834710
N               -2.3778509435        4.1148101172        5.0404923682
N                0.0039039094        5.4851841229        7.0619910335
N               -2.3714701092        6.8571560765        7.0684631708
Cr              -4.0191796096        6.9628608740       12.4860924530
Cr               0.9003518384        4.1148153647       12.5252771568
Cr              -1.6551447491        5.3781891762       12.4840223049
Cr              -0.7783697789        6.8733560137       10.4075768912
Cr              -3.1513311450        5.4685443693       10.4009484869
Cr              -0.8078188128        4.1148160722       10.4118858861
N               -2.3664495802        4.1148129294        9.2969198909
N                0.0024860911        5.4830245853       11.5430852325
N               -2.3747939631        6.8602331102       11.5222636147
Cr               3.1534249759        2.7663655410        8.2143317994
Cr               7.9461578777       -0.0001130146        8.2124007165
Cr               5.5347462115        1.3476462927        8.2136286216
Cr               6.3823244409        2.8239263871        6.0864820459
Cr               4.0096204232        1.2923765853        6.0850136078
Cr               6.2463702955        0.0007493565        6.0835360009
N                4.7556101236        0.0029888461        5.0400762827
N                7.1312691288        1.3724660991        7.0684630863
N                4.7528786672        2.7425771149        7.0749197754
Cr               3.1199783280        2.8397207526       12.4754173289
Cr               8.0438071267        0.0009055954       12.4839947475
Cr               5.4835594581        1.2667642080       12.4860942688
Cr               6.3514049177        2.7610822422       10.4009475166
Cr               3.9693691998        1.3518699230       10.4064018462
Cr               6.3127467379       -0.0006516419       10.4054061244
N                4.7526206414       -0.0033490215        9.2956351905
N                7.1279459042        1.3693948781       11.5222621099
N                4.7583459895        2.7438104299       11.5185580901
Cr               0.7801882605        6.8777974867        8.2097505719
Cr               5.5705038950        4.1148105467        8.2165294286
Cr               3.1534260866        5.4632570544        8.2143327982
Cr               4.0096204631        6.9372423593        6.0850130490
Cr               1.6357043040        5.4061398811        6.0808890834
Cr               3.8730358935        4.1148103611        6.0870422191
N                2.3847095993        4.1148102758        5.0400985445
N                4.7528790316        5.4870438260        7.0749213934
N                2.3779487572        6.8579466868        7.0685277946
Cr               0.7210443707        6.9820093574       12.4802610131
Cr               5.6752969051        4.1148157616       12.4834493517
Cr               3.1199795831        5.3899087083       12.4754146029
Cr               3.9693677577        6.8777570214       10.4064029638
Cr               1.5900240347        5.4620197895       10.4180044127
Cr               3.9394323332        4.1148116582       10.4030104265
N                2.3716516016        4.1148113706        9.3010654835
N                4.7583454610        5.4858160926       11.5185533228
N                2.3724240074        6.8576092202       11.5275636003
C                0.8833444319        4.1147491753       15.8720797011
H                0.9265183828        4.1139803111       14.7633772118
H                1.3924357779        3.2143518935       16.2301244927
H                1.3924327862        5.0155789995       16.2290201605
H               -0.1674583416        4.1149373502       16.1777485730
End final coordinates



     Writing all to output data dir tmp/CH4-H13_Rot30_ontop_/CH4-H13_Rot30_ontop_.save/ :
     XML data file, charge density, pseudopotentials, collected wavefunctions
 
     init_run     :     18.31s CPU     19.14s WALL (       1 calls)
     electrons    :  45242.84s CPU  46471.51s WALL (      27 calls)
     update_pot   :     32.82s CPU     34.34s WALL (      26 calls)
     forces       :    270.84s CPU    281.28s WALL (      27 calls)
     force_dftd3  :      5.96s CPU      6.28s WALL (      27 calls)

     Called by init_run:
     wfcinit      :     14.09s CPU     14.50s WALL (       1 calls)
     potinit      :      1.03s CPU      1.18s WALL (       1 calls)
     hinit0       :      0.35s CPU      0.41s WALL (       1 calls)

     Called by electrons:
     c_bands      :  37126.53s CPU  37903.96s WALL (    1164 calls)
     sum_band     :   6391.97s CPU   6624.98s WALL (    1164 calls)
     v_of_rho     :    668.36s CPU    718.28s WALL (    1178 calls)
     newd         :    503.52s CPU    651.74s WALL (    1178 calls)
     PAW_pot      :    426.27s CPU    432.30s WALL (    1204 calls)
     mix_rho      :     94.86s CPU    102.42s WALL (    1164 calls)
     energy_dftd3 :      3.16s CPU      3.18s WALL (      27 calls)

     Called by c_bands:
     init_us_2    :    665.84s CPU    674.61s WALL (    7146 calls)
     cegterg      :  34724.12s CPU  35480.04s WALL (    3492 calls)

     Called by *egterg:
     cdiaghg      :   1206.89s CPU   1221.01s WALL (   11767 calls)
     h_psi        :  17184.69s CPU  17513.81s WALL (   11887 calls)
     s_psi        :   4010.05s CPU   4050.41s WALL (   11887 calls)
     g_psi        :     79.39s CPU     80.35s WALL (    8392 calls)

     Called by h_psi:
     h_psi:calbec :   4059.71s CPU   4102.09s WALL (   11887 calls)
     vloc_psi     :   8960.65s CPU   9106.32s WALL (   11887 calls)
                                        0.00s GPU  (   11887 calls)
     add_vuspsi   :   4024.18s CPU   4065.98s WALL (   11887 calls)

     General routines
     calbec       :   6169.24s CPU   6233.17s WALL (   15781 calls)
     fft          :    534.09s CPU    579.18s WALL (   15596 calls)
     ffts         :      6.77s CPU      7.81s WALL (    2342 calls)
     fftw         :   8718.90s CPU   8854.73s WALL ( 8712694 calls)
     interpolate  :     38.50s CPU     42.71s WALL (    1178 calls)
 
     Parallel routines
 
     PWSCF        :     12h40m CPU     13h 1m WALL

 
   This run was terminated on:   2:38:19   3Jun2026            

=------------------------------------------------------------------------------=
   JOB DONE.
=------------------------------------------------------------------------------=
