
     Program PWSCF v.7.5 starts on 15May2026 at  4:50: 3 

     This program is part of the open-source Quantum ESPRESSO suite
     for quantum simulation of materials; please cite
         "P. Giannozzi et al., J. Phys.:Condens. Matter 21 395502 (2009);
         "P. Giannozzi et al., J. Phys.:Condens. Matter 29 465901 (2017);
         "P. Giannozzi et al., J. Chem. Phys. 152 154105 (2020);
          URL http://www.quantum-espresso.org", 
     in publications or presentations arising from this work. More details at
     http://www.quantum-espresso.org/quote

     Parallel version (MPI & OpenMP), running on      64 processor cores
     Number of MPI processes:                64
     Threads/MPI process:                     1

     MPI processes distributed on     1 nodes
     151391 MiB available memory on the printing compute node when the environment starts
 
     Reading input from pw-CH4-H22_Rot0_bridge__restart.in
Warning: card &CELL ignored

     Current dimensions of program PWSCF are:
     Max number of different atomic species (ntypx) = 10
     Max number of k-points (npk) =  40000
     Max angular momentum in pseudopotentials (lmaxx) =  4
     file Cr.pbe-spn-kjpaw_psl.1.0.0.UPF: wavefunction(s)  3S 3P 3D renormalized
     file N.pbe-n-kjpaw_psl.1.0.0.UPF: wavefunction(s)  2S renormalized
     file C.pbe-n-kjpaw_psl.1.0.0.UPF: wavefunction(s)  2S 2P renormalized
     file H.pbe-kjpaw_psl.1.0.0.UPF: wavefunction(s)  1S renormalized
 
     K-points division:     npool     =       4
     R & G space division:  proc/nbgrp/npool/nimage =      16
     Subspace diagonalization in iterative solution of the eigenvalue problem:
     one sub-group per band group will be used
     scalapack distributed-memory algorithm (size of sub-group:  4*  4 procs)

 
     Parallelization info
     --------------------
     sticks:   dense  smooth     PW     G-vecs:    dense   smooth      PW
     Min        1166     388    102               281408    54158    7274
     Max        1167     389    103               281417    54165    7281
     Sum       18661    6217   1639              4502593   866593  116429
 
     Using Slab Decomposition
 


     bravais-lattice index     =            0
     lattice parameter (alat)  =      17.9576  a.u.
     unit-cell volume          =   10952.5767 (a.u.)^3
     number of atoms/cell      =           77
     number of atomic types    =            4
     number of electrons       =       800.00
     number of Kohn-Sham states=          480
     kinetic-energy cutoff     =      70.0000  Ry
     charge density cutoff     =     840.0000  Ry
     scf convergence threshold =      1.0E-08
     mixing beta               =       0.2000
     number of iterations used =            8  plain     mixing
     energy convergence thresh.=      1.0E-04
     force convergence thresh. =      1.0E-03
     Exchange-correlation= SLA  PW   PBX  PBC
                           (   1   4   3   4   0   0   0)
     nstep                     =          200


     celldm(1)=  17.957575  celldm(2)=   0.000000  celldm(3)=   0.000000
     celldm(4)=   0.000000  celldm(5)=   0.000000  celldm(6)=   0.000000

     crystal axes: (cart. coord. in units of alat)
               a(1) = (   1.000000   0.000000   0.000000 )  
               a(2) = (  -0.500000   0.866025   0.000000 )  
               a(3) = (   0.000000   0.000000   2.183951 )  

     reciprocal axes: (cart. coord. in units 2 pi/alat)
               b(1) = (  1.000000  0.577351  0.000000 )  
               b(2) = (  0.000000  1.154701  0.000000 )  
               b(3) = (  0.000000  0.000000  0.457886 )  


     PseudoPot. # 1 for Cr read from file:
     /home/tomas.rojas_s/pseudo/Cr.pbe-spn-kjpaw_psl.1.0.0.UPF
     MD5 check sum: 198f1a2427a48552563eee314eba32ba
     Pseudo is Projector augmented-wave + core cor, Zval = 14.0
     Generated using &quot;atomic&quot; code by A. Dal Corso  v.6.3
     Shape of augmentation charge: PSQ
     Using radial grid of 1183 points,  6 beta functions with: 
                l(1) =   0
                l(2) =   0
                l(3) =   1
                l(4) =   1
                l(5) =   2
                l(6) =   2
     Q(r) pseudized with 0 coefficients 


     PseudoPot. # 2 for N  read from file:
     /home/tomas.rojas_s/pseudo/N.pbe-n-kjpaw_psl.1.0.0.UPF
     MD5 check sum: 14c48229446f9f2d411169a3abcbc3fa
     Pseudo is Projector augmented-wave + core cor, Zval =  5.0
     Generated using &quot;atomic&quot; code by A. Dal Corso  v.6.3
     Shape of augmentation charge: PSQ
     Using radial grid of 1085 points,  4 beta functions with: 
                l(1) =   0
                l(2) =   0
                l(3) =   1
                l(4) =   1
     Q(r) pseudized with 0 coefficients 


     PseudoPot. # 3 for C  read from file:
     /home/tomas.rojas_s/pseudo/C.pbe-n-kjpaw_psl.1.0.0.UPF
     MD5 check sum: 5f16ad9a65e90284d1d834d4ab3b0f7d
     Pseudo is Projector augmented-wave + core cor, Zval =  4.0
     Generated using &quot;atomic&quot; code by A. Dal Corso  v.6.3
     Shape of augmentation charge: PSQ
     Using radial grid of 1073 points,  4 beta functions with: 
                l(1) =   0
                l(2) =   0
                l(3) =   1
                l(4) =   1
     Q(r) pseudized with 0 coefficients 


     PseudoPot. # 4 for H  read from file:
     /home/tomas.rojas_s/pseudo/H.pbe-kjpaw_psl.1.0.0.UPF
     MD5 check sum: d81a744832360e4a8af0b0b5b123bc2a
     Pseudo is Projector augmented-wave, Zval =  1.0
     Generated using &quot;atomic&quot; code by A. Dal Corso  v.6.3MaX
     Shape of augmentation charge: PSQ
     Using radial grid of  929 points,  2 beta functions with: 
                l(1) =   0
                l(2) =   0
     Q(r) pseudized with 0 coefficients 


     atomic species   valence    mass     pseudopotential
     Cr               14.00    51.99610     Cr( 1.00)
     N                 5.00    14.00670     N ( 1.00)
     C                 4.00    12.01100     C ( 1.00)
     H                 1.00     1.00800     H ( 1.00)

     No symmetry found



   Cartesian axes

     site n.     atom                  positions (alat units)
         1        Cr     tau(   1) = (  -0.1674474   0.2928932   0.8666468  )
         2        Cr     tau(   2) = (   0.3365206   0.0013105   0.8670999  )
         3        Cr     tau(   3) = (   0.0826598   0.1443289   0.8668329  )
         4        Cr     tau(   4) = (   0.1719058   0.2988298   0.6423022  )
         5        Cr     tau(   5) = (  -0.0781197   0.1381614   0.6425405  )
         6        Cr     tau(   6) = (   0.1579995   0.0016108   0.6420856  )
         7        N      tau(   7) = (   0.0004550   0.0022527   0.5317747  )
         8        N      tau(   8) = (   0.2500711   0.1466416   0.7465135  )
         9        N      tau(   9) = (   0.0005982   0.2907164   0.7469234  )
        10        Cr     tau(  10) = (  -0.1732760   0.3022810   1.3153281  )
        11        Cr     tau(  11) = (   0.3485785   0.0009090   1.3148818  )
        12        Cr     tau(  12) = (   0.0743994   0.1290017   1.3113953  )
        13        Cr     tau(  13) = (   0.1693545   0.2928774   1.0978157  )
        14        Cr     tau(  14) = (  -0.0825196   0.1435686   1.0962937  )
        15        Cr     tau(  15) = (   0.1649771   0.0004338   1.0963024  )
        16        N      tau(  16) = (   0.0010047   0.0019839   0.9796605  )
        17        N      tau(  17) = (   0.2502554   0.1460666   1.2145759  )
        18        N      tau(  18) = (   0.0010650   0.2899652   1.2150230  )
        19        Cr     tau(  19) = (  -0.4172382   0.7257701   0.8664432  )
        20        Cr     tau(  20) = (   0.0870722   0.4346430   0.8664212  )
        21        Cr     tau(  21) = (  -0.1671954   0.5767810   0.8663933  )
        22        Cr     tau(  22) = (  -0.0780680   0.7312313   0.6420271  )
        23        Cr     tau(  23) = (  -0.3279050   0.5710201   0.6426658  )
        24        Cr     tau(  24) = (  -0.0920440   0.4349945   0.6425396  )
        25        N      tau(  25) = (  -0.2492977   0.4348213   0.5319637  )
        26        N      tau(  26) = (   0.0008396   0.5792621   0.7469942  )
        27        N      tau(  27) = (  -0.2491461   0.7236389   0.7466700  )
        28        Cr     tau(  28) = (  -0.4218211   0.7347015   1.3163268  )
        29        Cr     tau(  29) = (   0.0939334   0.4341445   1.3166173  )
        30        Cr     tau(  30) = (  -0.1733515   0.5673420   1.3170319  )
        31        Cr     tau(  31) = (  -0.0812923   0.7247332   1.0973098  )
        32        Cr     tau(  32) = (  -0.3296657   0.5768531   1.0961150  )
        33        Cr     tau(  33) = (  -0.0846007   0.4349131   1.0976502  )
        34        N      tau(  34) = (  -0.2490969   0.4344575   0.9801710  )
        35        N      tau(  35) = (   0.0015075   0.5789598   1.2171460  )
        36        N      tau(  36) = (  -0.2490062   0.7229444   1.2147868  )
        37        Cr     tau(  37) = (   0.3330268   0.2932681   0.8668022  )
        38        Cr     tau(  38) = (   0.8368554   0.0024346   0.8667661  )
        39        Cr     tau(  39) = (   0.5824754   0.1444134   0.8651901  )
        40        Cr     tau(  40) = (   0.6720404   0.2988232   0.6421477  )
        41        Cr     tau(  41) = (   0.4223991   0.1385374   0.6422921  )
        42        Cr     tau(  42) = (   0.6584553   0.0016817   0.6422216  )
        43        N      tau(  43) = (   0.5008734   0.0018166   0.5320624  )
        44        N      tau(  44) = (   0.7514354   0.1459878   0.7471383  )
        45        N      tau(  45) = (   0.5008266   0.2905302   0.7470495  )
        46        Cr     tau(  46) = (   0.3287634   0.2954869   1.3200295  )
        47        Cr     tau(  47) = (   0.8469628   0.0021260   1.3164794  )
        48        Cr     tau(  48) = (   0.5773321   0.1336564   1.3168872  )
        49        Cr     tau(  49) = (   0.6677518   0.2923961   1.0974297  )
        50        Cr     tau(  50) = (   0.4184151   0.1447385   1.0974602  )
        51        Cr     tau(  51) = (   0.6641577   0.0031367   1.0961879  )
        52        N      tau(  52) = (   0.5000054   0.0017570   0.9812094  )
        53        N      tau(  53) = (   0.7501517   0.1461908   1.2150508  )
        54        N      tau(  54) = (   0.4992504   0.2912255   1.2180484  )
        55        Cr     tau(  55) = (   0.0825986   0.7254333   0.8674264  )
        56        Cr     tau(  56) = (   0.5865159   0.4344853   0.8667649  )
        57        Cr     tau(  57) = (   0.3327603   0.5763841   0.8666783  )
        58        Cr     tau(  58) = (   0.4220392   0.7317123   0.6423487  )
        59        Cr     tau(  59) = (   0.1717287   0.5712657   0.6423005  )
        60        Cr     tau(  60) = (   0.4082648   0.4344674   0.6424615  )
        61        N      tau(  61) = (   0.2506247   0.4354236   0.5321658  )
        62        N      tau(  62) = (   0.5007362   0.5790992   0.7467348  )
        63        N      tau(  63) = (   0.2504868   0.7227833   0.7465639  )
        64        Cr     tau(  64) = (   0.0751200   0.7385756   1.3160948  )
        65        Cr     tau(  65) = (   0.6020091   0.4344963   1.3161093  )
        66        Cr     tau(  66) = (   0.3303683   0.5729393   1.3117060  )
        67        Cr     tau(  67) = (   0.4187009   0.7256074   1.0974479  )
        68        Cr     tau(  68) = (   0.1678901   0.5770893   1.0965429  )
        69        Cr     tau(  69) = (   0.4154955   0.4337368   1.0974286  )
        70        N      tau(  70) = (   0.2510147   0.4344435   0.9805872  )
        71        N      tau(  71) = (   0.5032491   0.5782473   1.2140122  )
        72        N      tau(  72) = (   0.2488371   0.7254198   1.2138223  )
        73        C      tau(  73) = (   0.2041262   0.3456184   1.5897268  )
        74        H      tau(  74) = (   0.2706222   0.3982775   1.6631406  )
        75        H      tau(  75) = (   0.1333427   0.2728991   1.6506009  )
        76        H      tau(  76) = (   0.1349542   0.4186366   1.5286437  )
        77        H      tau(  77) = (   0.2627254   0.2721049   1.5127252  )

     --------------------------------------------
     DFT-D3 Dispersion Correction (3-body terms):
     --------------------------------------------
       Reference C6 values for interpolation: 

         atom   Coordination number   C6
         H          0.912             6.05
         H          0.000            15.18
         C          0.000            98.23
         C          0.987            86.49
         C          1.998            58.72
         C          2.999            51.56
         C          3.984            36.41
         N          0.000            50.54
         N          0.994            44.25
         N          2.014            39.35
         N          2.990            31.16
         Cr         0.000          1381.48
         Cr         1.827           571.38
         Cr        10.619           306.69

       Values used:

         atom   Coordination number  R0_AB[au]  C6      C8
         Cr        12.614            3.252    306.69  28303.74
         Cr        12.583            3.252    306.69  28303.74
         Cr        12.593            3.252    306.69  28303.74
         Cr        10.039            3.252    306.69  28303.74
         Cr        10.056            3.252    306.69  28303.74
         Cr        10.024            3.252    306.69  28303.74
         N          3.045            2.478     31.27    689.89
         N          6.012            2.478     31.16    687.49
         N          6.018            2.478     31.16    687.49
         Cr         9.073            3.252    306.69  28303.74
         Cr         9.118            3.252    306.69  28303.74
         Cr         8.985            3.252    306.69  28303.74
         Cr        12.636            3.252    306.69  28303.74
         Cr        12.710            3.252    306.69  28303.74
         Cr        12.715            3.252    306.69  28303.74
         N          6.046            2.478     31.16    687.49
         N          6.027            2.478     31.16    687.49
         N          6.024            2.478     31.16    687.49
         Cr        12.609            3.252    306.69  28303.74
         Cr        12.614            3.252    306.69  28303.74
         Cr        12.626            3.252    306.69  28303.74
         Cr        10.045            3.252    306.69  28303.74
         Cr        10.064            3.252    306.69  28303.74
         Cr        10.065            3.252    306.69  28303.74
         N          3.046            2.478     31.27    689.88
         N          6.018            2.478     31.16    687.49
         N          6.017            2.478     31.16    687.49
         Cr         9.095            3.252    306.69  28303.74
         Cr         9.192            3.252    306.69  28303.74
         Cr         9.076            3.252    306.69  28303.74
         Cr        12.741            3.252    306.69  28303.74
         Cr        12.721            3.252    306.69  28303.74
         Cr        12.720            3.252    306.69  28303.74
         N          6.046            2.478     31.16    687.49
         N          6.024            2.478     31.16    687.49
         N          6.035            2.478     31.16    687.49
         Cr        12.620            3.252    306.69  28303.74
         Cr        12.600            3.252    306.69  28303.74
         Cr        12.610            3.252    306.69  28303.74
         Cr        10.068            3.252    306.69  28303.74
         Cr        10.043            3.252    306.69  28303.74
         Cr        10.048            3.252    306.69  28303.74
         N          3.045            2.478     31.27    689.89
         N          6.019            2.478     31.16    687.49
         N          6.022            2.478     31.16    687.49
         Cr         9.365            3.252    306.69  28303.74
         Cr         9.092            3.252    306.69  28303.74
         Cr         9.090            3.252    306.69  28303.74
         Cr        12.724            3.252    306.69  28303.74
         Cr        12.726            3.252    306.69  28303.74
         Cr        12.708            3.252    306.69  28303.74
         N          6.045            2.478     31.16    687.49
         N          6.033            2.478     31.16    687.49
         N          6.022            2.478     31.16    687.49
         Cr        12.599            3.252    306.69  28303.74
         Cr        12.632            3.252    306.69  28303.74
         Cr        12.588            3.252    306.69  28303.74
         Cr        10.039            3.252    306.69  28303.74
         Cr        10.051            3.252    306.69  28303.74
         Cr        10.062            3.252    306.69  28303.74
         N          3.046            2.478     31.27    689.88
         N          6.016            2.478     31.16    687.49
         N          6.013            2.478     31.16    687.49
         Cr         8.929            3.252    306.69  28303.74
         Cr         8.906            3.252    306.69  28303.74
         Cr         9.034            3.252    306.69  28303.74
         Cr        12.708            3.252    306.69  28303.74
         Cr        12.658            3.252    306.69  28303.74
         Cr        12.643            3.252    306.69  28303.74
         N          6.045            2.478     31.16    687.49
         N          6.025            2.478     31.16    687.49
         N          6.026            2.478     31.16    687.49
         C          4.146            2.750     36.49   1055.34
         H          1.000            2.062      6.18     74.72
         H          0.991            2.062      6.19     74.82
         H          1.216            2.062      6.08     73.50
         H          1.379            2.062      6.06     73.27

         Molecular C6 ( Ry / a.u.^6 ) =    974384.32


     number of k points=    10  Methfessel-Paxton smearing, width (Ry)=  0.0200
                       cart. coord. in units 2pi/alat
        k(    1) = (   0.0000000   0.0000000   0.0000000), wk =   0.1250000
        k(    2) = (   0.0000000   0.2886753   0.0000000), wk =   0.2500000
        k(    3) = (   0.0000000  -0.5773505   0.0000000), wk =   0.1250000
        k(    4) = (   0.2500000   0.4330129   0.0000000), wk =   0.2500000
        k(    5) = (  -0.2500000   0.1443376   0.0000000), wk =   0.2500000
        k(    6) = (   0.2500000   0.1443376   0.0000000), wk =   0.2500000
        k(    7) = (   0.5000000  -0.2886753   0.0000000), wk =   0.1250000
        k(    8) = (  -0.5000000  -0.2886753   0.0000000), wk =   0.1250000
        k(    9) = (  -0.2500000   0.4330129   0.0000000), wk =   0.2500000
        k(   10) = (   0.5000000  -0.0000000   0.0000000), wk =   0.2500000

     Dense  grid:  4502593 G-vectors     FFT dimensions: ( 180, 180, 375)

     Smooth grid:   866593 G-vectors     FFT dimensions: (  96,  96, 216)

     Estimated max dynamical RAM per process >     867.27 MB

     Estimated total dynamical RAM >      50.98 GB

     Initial potential from superposition of free atoms

     starting charge     799.9627, renormalised to     800.0000

     negative rho (up, down):  3.756E-04 0.000E+00
     Starting wfcs are  584 randomized atomic wfcs
     Checking if some PAW data can be deallocated... 

     total cpu time spent up to now is       19.6 secs

     Self-consistent Calculation

     iteration #  1     ecut=    70.00 Ry     beta= 0.20
     Davidson diagonalization with overlap
     ethr =  1.00E-02,  avg # of iterations =  2.7

     negative rho (up, down):  1.459E-04 0.000E+00

     total cpu time spent up to now is       70.4 secs

     total energy              =  -12611.06832222 Ry
     estimated scf accuracy    <      28.18525520 Ry

     iteration #  2     ecut=    70.00 Ry     beta= 0.20
     Davidson diagonalization with overlap
     ethr =  3.52E-03,  avg # of iterations =  6.5

     negative rho (up, down):  4.442E-04 0.000E+00

     total cpu time spent up to now is      125.7 secs

     total energy              =  -12601.05411628 Ry
     estimated scf accuracy    <     666.73554266 Ry

     iteration #  3     ecut=    70.00 Ry     beta= 0.20
     Davidson diagonalization with overlap
     ethr =  3.52E-03,  avg # of iterations =  3.7

     negative rho (up, down):  6.578E-04 0.000E+00

     total cpu time spent up to now is      167.7 secs

     total energy              =  -12608.52070486 Ry
     estimated scf accuracy    <     534.37806617 Ry

     iteration #  4     ecut=    70.00 Ry     beta= 0.20
     Davidson diagonalization with overlap
     ethr =  3.52E-03,  avg # of iterations =  2.0

     negative rho (up, down):  3.147E-04 0.000E+00

     total cpu time spent up to now is      207.5 secs

     total energy              =  -12615.06251456 Ry
     estimated scf accuracy    <      69.81908896 Ry

     iteration #  5     ecut=    70.00 Ry     beta= 0.20
     Davidson diagonalization with overlap
     ethr =  3.52E-03,  avg # of iterations =  1.3

     negative rho (up, down):  4.094E-04 0.000E+00

     total cpu time spent up to now is      244.2 secs

     total energy              =  -12615.55646005 Ry
     estimated scf accuracy    <      20.94775629 Ry

     iteration #  6     ecut=    70.00 Ry     beta= 0.20
     Davidson diagonalization with overlap
     ethr =  2.62E-03,  avg # of iterations =  1.0

     negative rho (up, down):  4.860E-04 0.000E+00

     total cpu time spent up to now is      279.4 secs

     total energy              =  -12616.27260567 Ry
     estimated scf accuracy    <       2.86968106 Ry

     iteration #  7     ecut=    70.00 Ry     beta= 0.20
     Davidson diagonalization with overlap
     ethr =  3.59E-04,  avg # of iterations = 12.7

     negative rho (up, down):  4.739E-04 0.000E+00

     total cpu time spent up to now is      330.7 secs

     total energy              =  -12616.42032171 Ry
     estimated scf accuracy    <       2.15562099 Ry

     iteration #  8     ecut=    70.00 Ry     beta= 0.20
     Davidson diagonalization with overlap
     ethr =  2.69E-04,  avg # of iterations =  1.5

     negative rho (up, down):  4.975E-04 0.000E+00

     total cpu time spent up to now is      369.6 secs

     total energy              =  -12616.43224866 Ry
     estimated scf accuracy    <       1.05166113 Ry

     iteration #  9     ecut=    70.00 Ry     beta= 0.20
     Davidson diagonalization with overlap
     ethr =  1.31E-04,  avg # of iterations =  1.8

     negative rho (up, down):  4.182E-04 0.000E+00

     total cpu time spent up to now is      408.6 secs

     total energy              =  -12616.43810529 Ry
     estimated scf accuracy    <       0.60389365 Ry

     iteration # 10     ecut=    70.00 Ry     beta= 0.20
     Davidson diagonalization with overlap
     ethr =  7.55E-05,  avg # of iterations =  2.0

     negative rho (up, down):  3.221E-04 0.000E+00

     total cpu time spent up to now is      448.2 secs

     total energy              =  -12616.42945950 Ry
     estimated scf accuracy    <       0.49195542 Ry

     iteration # 11     ecut=    70.00 Ry     beta= 0.20
     Davidson diagonalization with overlap
     ethr =  6.15E-05,  avg # of iterations =  1.9

     negative rho (up, down):  3.858E-04 0.000E+00

     total cpu time spent up to now is      487.9 secs

     total energy              =  -12616.44254769 Ry
     estimated scf accuracy    <       0.19133088 Ry

     iteration # 12     ecut=    70.00 Ry     beta= 0.20
     Davidson diagonalization with overlap
     c_bands:  1 eigenvalues not converged
     ethr =  2.39E-05,  avg # of iterations = 14.7

     negative rho (up, down):  2.644E-04 0.000E+00

     total cpu time spent up to now is      540.0 secs

     total energy              =  -12616.43627739 Ry
     estimated scf accuracy    <       0.56300112 Ry

     iteration # 13     ecut=    70.00 Ry     beta= 0.20
     Davidson diagonalization with overlap
     ethr =  2.39E-05,  avg # of iterations =  1.3

     negative rho (up, down):  2.475E-04 0.000E+00

     total cpu time spent up to now is      578.2 secs

     total energy              =  -12616.44733860 Ry
     estimated scf accuracy    <       0.16958565 Ry

     iteration # 14     ecut=    70.00 Ry     beta= 0.20
     Davidson diagonalization with overlap
     ethr =  2.12E-05,  avg # of iterations =  1.3

     negative rho (up, down):  2.204E-04 0.000E+00

     total cpu time spent up to now is      616.6 secs

     total energy              =  -12616.44660200 Ry
     estimated scf accuracy    <       0.16578630 Ry

     iteration # 15     ecut=    70.00 Ry     beta= 0.20
     Davidson diagonalization with overlap
     ethr =  2.07E-05,  avg # of iterations =  1.1

     negative rho (up, down):  2.114E-04 0.000E+00

     total cpu time spent up to now is      652.7 secs

     total energy              =  -12616.44819939 Ry
     estimated scf accuracy    <       0.10695612 Ry

     iteration # 16     ecut=    70.00 Ry     beta= 0.20
     Davidson diagonalization with overlap
     ethr =  1.34E-05,  avg # of iterations =  1.4

     negative rho (up, down):  1.880E-04 0.000E+00

     total cpu time spent up to now is      691.8 secs

     total energy              =  -12616.44855887 Ry
     estimated scf accuracy    <       0.06428653 Ry

     iteration # 17     ecut=    70.00 Ry     beta= 0.20
     Davidson diagonalization with overlap
     ethr =  8.04E-06,  avg # of iterations =  5.1

     negative rho (up, down):  1.887E-04 0.000E+00

     total cpu time spent up to now is      735.8 secs

     total energy              =  -12616.44887771 Ry
     estimated scf accuracy    <       0.04141210 Ry

     iteration # 18     ecut=    70.00 Ry     beta= 0.20
     Davidson diagonalization with overlap
     ethr =  5.18E-06,  avg # of iterations =  6.2

     negative rho (up, down):  1.893E-04 0.000E+00

     total cpu time spent up to now is      781.1 secs

     total energy              =  -12616.45026075 Ry
     estimated scf accuracy    <       0.02124288 Ry

     iteration # 19     ecut=    70.00 Ry     beta= 0.20
     Davidson diagonalization with overlap
     ethr =  2.66E-06,  avg # of iterations =  8.9

     negative rho (up, down):  1.913E-04 0.000E+00

     total cpu time spent up to now is      828.2 secs

     total energy              =  -12616.45077217 Ry
     estimated scf accuracy    <       0.01022902 Ry

     iteration # 20     ecut=    70.00 Ry     beta= 0.20
     Davidson diagonalization with overlap
     ethr =  1.28E-06,  avg # of iterations =  1.6

     negative rho (up, down):  1.942E-04 0.000E+00

     total cpu time spent up to now is      867.1 secs

     total energy              =  -12616.45102449 Ry
     estimated scf accuracy    <       0.00231389 Ry

     iteration # 21     ecut=    70.00 Ry     beta= 0.20
     Davidson diagonalization with overlap
     ethr =  2.89E-07,  avg # of iterations =  6.1

     negative rho (up, down):  1.975E-04 0.000E+00

     total cpu time spent up to now is      910.6 secs

     total energy              =  -12616.45112448 Ry
     estimated scf accuracy    <       0.00303125 Ry

     iteration # 22     ecut=    70.00 Ry     beta= 0.20
     Davidson diagonalization with overlap
     c_bands:  4 eigenvalues not converged
     ethr =  2.89E-07,  avg # of iterations =  5.5

     negative rho (up, down):  2.014E-04 0.000E+00

     total cpu time spent up to now is      955.5 secs

     total energy              =  -12616.45118711 Ry
     estimated scf accuracy    <       0.00351693 Ry

     iteration # 23     ecut=    70.00 Ry     beta= 0.20
     Davidson diagonalization with overlap
     c_bands:  1 eigenvalues not converged
     ethr =  2.89E-07,  avg # of iterations =  3.5

     negative rho (up, down):  2.045E-04 0.000E+00

     total cpu time spent up to now is      997.5 secs

     total energy              =  -12616.45129126 Ry
     estimated scf accuracy    <       0.00207182 Ry

     iteration # 24     ecut=    70.00 Ry     beta= 0.20
     Davidson diagonalization with overlap
     ethr =  2.59E-07,  avg # of iterations =  1.1

     negative rho (up, down):  2.045E-04 0.000E+00

     total cpu time spent up to now is     1033.8 secs

     total energy              =  -12616.45133789 Ry
     estimated scf accuracy    <       0.00066954 Ry

     iteration # 25     ecut=    70.00 Ry     beta= 0.20
     Davidson diagonalization with overlap
     ethr =  8.37E-08,  avg # of iterations =  2.0

     negative rho (up, down):  2.043E-04 0.000E+00

     total cpu time spent up to now is     1073.7 secs

     total energy              =  -12616.45135330 Ry
     estimated scf accuracy    <       0.00050633 Ry

     iteration # 26     ecut=    70.00 Ry     beta= 0.20
     Davidson diagonalization with overlap
     ethr =  6.33E-08,  avg # of iterations =  1.3

     negative rho (up, down):  2.046E-04 0.000E+00

     total cpu time spent up to now is     1112.3 secs

     total energy              =  -12616.45135948 Ry
     estimated scf accuracy    <       0.00021039 Ry

     iteration # 27     ecut=    70.00 Ry     beta= 0.20
     Davidson diagonalization with overlap
     ethr =  2.63E-08,  avg # of iterations =  5.6

     negative rho (up, down):  2.038E-04 0.000E+00

     total cpu time spent up to now is     1154.7 secs

     total energy              =  -12616.45136578 Ry
     estimated scf accuracy    <       0.00010847 Ry

     iteration # 28     ecut=    70.00 Ry     beta= 0.20
     Davidson diagonalization with overlap
     ethr =  1.36E-08,  avg # of iterations =  5.0

     negative rho (up, down):  2.034E-04 0.000E+00

     total cpu time spent up to now is     1196.9 secs

     total energy              =  -12616.45136076 Ry
     estimated scf accuracy    <       0.00044622 Ry

     iteration # 29     ecut=    70.00 Ry     beta= 0.20
     Davidson diagonalization with overlap
     ethr =  1.36E-08,  avg # of iterations =  1.5

     negative rho (up, down):  2.039E-04 0.000E+00

     total cpu time spent up to now is     1235.8 secs

     total energy              =  -12616.45137037 Ry
     estimated scf accuracy    <       0.00011158 Ry

     iteration # 30     ecut=    70.00 Ry     beta= 0.20
     Davidson diagonalization with overlap
     ethr =  1.36E-08,  avg # of iterations =  1.4

     negative rho (up, down):  2.037E-04 0.000E+00

     total cpu time spent up to now is     1274.7 secs

     total energy              =  -12616.45137304 Ry
     estimated scf accuracy    <       0.00002657 Ry

     iteration # 31     ecut=    70.00 Ry     beta= 0.20
     Davidson diagonalization with overlap
     ethr =  3.32E-09,  avg # of iterations =  5.1

     negative rho (up, down):  2.033E-04 0.000E+00

     total cpu time spent up to now is     1317.1 secs

     total energy              =  -12616.45137280 Ry
     estimated scf accuracy    <       0.00002849 Ry

     iteration # 32     ecut=    70.00 Ry     beta= 0.20
     Davidson diagonalization with overlap
     ethr =  3.32E-09,  avg # of iterations =  1.0

     negative rho (up, down):  2.032E-04 0.000E+00

     total cpu time spent up to now is     1352.3 secs

     total energy              =  -12616.45137289 Ry
     estimated scf accuracy    <       0.00001323 Ry

     iteration # 33     ecut=    70.00 Ry     beta= 0.20
     Davidson diagonalization with overlap
     ethr =  1.65E-09,  avg # of iterations =  3.4

     negative rho (up, down):  2.029E-04 0.000E+00

     total cpu time spent up to now is     1393.4 secs

     total energy              =  -12616.45137244 Ry
     estimated scf accuracy    <       0.00001245 Ry

     iteration # 34     ecut=    70.00 Ry     beta= 0.20
     Davidson diagonalization with overlap
     ethr =  1.56E-09,  avg # of iterations =  1.9

     negative rho (up, down):  2.027E-04 0.000E+00

     total cpu time spent up to now is     1433.2 secs

     total energy              =  -12616.45137186 Ry
     estimated scf accuracy    <       0.00001889 Ry

     iteration # 35     ecut=    70.00 Ry     beta= 0.20
     Davidson diagonalization with overlap
     ethr =  1.56E-09,  avg # of iterations =  1.1

     negative rho (up, down):  2.025E-04 0.000E+00

     total cpu time spent up to now is     1469.2 secs

     total energy              =  -12616.45137155 Ry
     estimated scf accuracy    <       0.00006720 Ry

     iteration # 36     ecut=    70.00 Ry     beta= 0.20
     Davidson diagonalization with overlap
     ethr =  1.56E-09,  avg # of iterations =  1.0

     negative rho (up, down):  2.024E-04 0.000E+00

     total cpu time spent up to now is     1504.3 secs

     total energy              =  -12616.45137228 Ry
     estimated scf accuracy    <       0.00000182 Ry

     iteration # 37     ecut=    70.00 Ry     beta= 0.20
     Davidson diagonalization with overlap
     ethr =  2.28E-10,  avg # of iterations =  5.6

     negative rho (up, down):  2.023E-04 0.000E+00

     total cpu time spent up to now is     1546.7 secs

     total energy              =  -12616.45137224 Ry
     estimated scf accuracy    <       0.00000110 Ry

     iteration # 38     ecut=    70.00 Ry     beta= 0.20
     Davidson diagonalization with overlap
     ethr =  1.37E-10,  avg # of iterations =  4.6

     negative rho (up, down):  2.022E-04 0.000E+00

     total cpu time spent up to now is     1588.8 secs

     total energy              =  -12616.45137212 Ry
     estimated scf accuracy    <       0.00000349 Ry

     iteration # 39     ecut=    70.00 Ry     beta= 0.20
     Davidson diagonalization with overlap
     ethr =  1.37E-10,  avg # of iterations =  1.3

     negative rho (up, down):  2.022E-04 0.000E+00

     total cpu time spent up to now is     1626.4 secs

     total energy              =  -12616.45137219 Ry
     estimated scf accuracy    <       0.00000087 Ry

     iteration # 40     ecut=    70.00 Ry     beta= 0.20
     Davidson diagonalization with overlap
     ethr =  1.09E-10,  avg # of iterations =  2.0

     negative rho (up, down):  2.021E-04 0.000E+00

     total cpu time spent up to now is     1666.2 secs

     total energy              =  -12616.45137214 Ry
     estimated scf accuracy    <       0.00000273 Ry

     iteration # 41     ecut=    70.00 Ry     beta= 0.20
     Davidson diagonalization with overlap
     ethr =  1.09E-10,  avg # of iterations =  1.0

     negative rho (up, down):  2.021E-04 0.000E+00

     total cpu time spent up to now is     1701.3 secs

     total energy              =  -12616.45137216 Ry
     estimated scf accuracy    <       0.00000093 Ry

     iteration # 42     ecut=    70.00 Ry     beta= 0.20
     Davidson diagonalization with overlap
     ethr =  1.09E-10,  avg # of iterations =  1.0

     negative rho (up, down):  2.020E-04 0.000E+00

     total cpu time spent up to now is     1736.2 secs

     total energy              =  -12616.45137218 Ry
     estimated scf accuracy    <       0.00000016 Ry

     iteration # 43     ecut=    70.00 Ry     beta= 0.20
     Davidson diagonalization with overlap
     ethr =  2.01E-11,  avg # of iterations =  2.4

     negative rho (up, down):  2.020E-04 0.000E+00

     total cpu time spent up to now is     1776.6 secs

     total energy              =  -12616.45137218 Ry
     estimated scf accuracy    <       0.00000015 Ry

     iteration # 44     ecut=    70.00 Ry     beta= 0.20
     Davidson diagonalization with overlap
     ethr =  1.92E-11,  avg # of iterations =  1.5

     negative rho (up, down):  2.020E-04 0.000E+00

     total cpu time spent up to now is     1815.5 secs

     total energy              =  -12616.45137218 Ry
     estimated scf accuracy    <       0.00000020 Ry

     iteration # 45     ecut=    70.00 Ry     beta= 0.20
     Davidson diagonalization with overlap
     ethr =  1.92E-11,  avg # of iterations =  2.0

     negative rho (up, down):  2.020E-04 0.000E+00

     total cpu time spent up to now is     1855.4 secs

     total energy              =  -12616.45137218 Ry
     estimated scf accuracy    <       0.00000021 Ry

     iteration # 46     ecut=    70.00 Ry     beta= 0.20
     Davidson diagonalization with overlap
     ethr =  1.92E-11,  avg # of iterations =  1.3

     negative rho (up, down):  2.020E-04 0.000E+00

     total cpu time spent up to now is     1893.2 secs

     total energy              =  -12616.45137218 Ry
     estimated scf accuracy    <       0.00000017 Ry

     iteration # 47     ecut=    70.00 Ry     beta= 0.20
     Davidson diagonalization with overlap
     ethr =  1.92E-11,  avg # of iterations =  1.0

     negative rho (up, down):  2.020E-04 0.000E+00

     total cpu time spent up to now is     1928.3 secs

     total energy              =  -12616.45137218 Ry
     estimated scf accuracy    <       0.00000030 Ry

     iteration # 48     ecut=    70.00 Ry     beta= 0.20
     Davidson diagonalization with overlap
     ethr =  1.92E-11,  avg # of iterations =  1.0

     negative rho (up, down):  2.019E-04 0.000E+00

     total cpu time spent up to now is     1963.4 secs

     total energy              =  -12616.45137218 Ry
     estimated scf accuracy    <       0.00000008 Ry

     iteration # 49     ecut=    70.00 Ry     beta= 0.20
     Davidson diagonalization with overlap
     ethr =  9.67E-12,  avg # of iterations =  1.0

     negative rho (up, down):  2.019E-04 0.000E+00

     total cpu time spent up to now is     1998.5 secs

     total energy              =  -12616.45137219 Ry
     estimated scf accuracy    <       0.00000002 Ry

     iteration # 50     ecut=    70.00 Ry     beta= 0.20
     Davidson diagonalization with overlap
     ethr =  2.45E-12,  avg # of iterations =  3.9

     negative rho (up, down):  2.019E-04 0.000E+00

     total cpu time spent up to now is     2039.9 secs

     total energy              =  -12616.45137218 Ry
     estimated scf accuracy    <       0.00000009 Ry

     iteration # 51     ecut=    70.00 Ry     beta= 0.20
     Davidson diagonalization with overlap
     ethr =  2.45E-12,  avg # of iterations =  1.1

     negative rho (up, down):  2.019E-04 0.000E+00

     total cpu time spent up to now is     2076.0 secs

     total energy              =  -12616.45137219 Ry
     estimated scf accuracy    <       0.00000002 Ry

     iteration # 52     ecut=    70.00 Ry     beta= 0.20
     Davidson diagonalization with overlap
     ethr =  2.24E-12,  avg # of iterations =  1.5

     negative rho (up, down):  2.019E-04 0.000E+00

     total cpu time spent up to now is     2114.3 secs

     total energy              =  -12616.45137219 Ry
     estimated scf accuracy    <       0.00000002 Ry

     iteration # 53     ecut=    70.00 Ry     beta= 0.20
     Davidson diagonalization with overlap
     ethr =  2.20E-12,  avg # of iterations =  1.0

     negative rho (up, down):  2.019E-04 0.000E+00

     total cpu time spent up to now is     2149.3 secs

     End of self-consistent calculation

          k = 0.0000 0.0000 0.0000 (108303 PWs)   bands (ev):

   -66.9379 -66.9018 -66.8970 -66.8965 -66.8931 -66.8888 -66.8886 -66.8837
   -66.8683 -66.8650 -66.8638 -66.8597 -66.8573 -66.8549 -66.8539 -66.8524
   -66.8518 -66.8484 -66.8473 -66.8354 -66.8340 -66.8326 -66.8293 -66.8252
   -66.6895 -66.6664 -66.6657 -66.6649 -66.6419 -66.6408 -66.6400 -66.6289
   -66.6283 -66.6269 -66.6230 -66.6215 -66.5907 -66.5638 -66.5593 -66.5528
   -66.5501 -66.5460 -66.5125 -66.5025 -66.5004 -66.4950 -66.4937 -66.4924
   -38.7341 -38.7071 -38.7058 -38.6972 -38.6102 -38.6076 -38.6034 -38.5680
   -38.5633 -38.5530 -38.5454 -38.5428 -38.5385 -38.4962 -38.4936 -38.4924
   -38.4863 -38.4843 -38.4841 -38.4567 -38.4532 -38.4487 -38.4131 -38.4122
   -38.4109 -38.4074 -38.4064 -38.3961 -38.3944 -38.3580 -38.3511 -38.3492
   -38.3220 -38.3124 -38.3073 -38.3058 -38.3026 -38.3018 -38.2721 -38.2691
   -38.2685 -38.2484 -38.2431 -38.2416 -38.2299 -38.2251 -38.2244 -38.2224
   -38.2099 -38.2088 -38.2053 -38.2049 -38.2026 -38.1960 -38.1946 -38.1914
   -38.1795 -38.1790 -38.1765 -38.1753 -38.1740 -38.1724 -38.1613 -38.1597
   -38.1534 -38.1505 -38.1491 -38.1470 -38.1420 -38.1387 -38.1304 -38.1064
   -38.0943 -38.0896 -38.0848 -38.0806 -38.0800 -38.0755 -38.0689 -38.0639
   -38.0601 -38.0583 -38.0476 -38.0465 -38.0441 -38.0389 -38.0261 -38.0244
   -38.0210 -38.0171 -38.0108 -37.9814 -37.9766 -37.9764 -37.9748 -37.9709
   -37.9653 -37.9629 -37.9510 -37.9450 -37.9449 -37.9337 -37.9312 -37.9309
   -37.9018 -37.8994 -37.8935 -37.8857 -37.8810 -37.8719 -37.8705 -37.8698
   -37.8670 -37.8647 -37.8623 -37.8616 -37.8553 -37.8421 -37.8391 -37.8386
   -37.8383 -37.8355 -37.8322 -37.8299 -37.8021 -37.8016 -37.8007 -37.7919
   -37.7910 -37.7897 -37.7653 -37.7646 -37.7601 -37.7487 -37.7433 -37.7403
   -37.6544 -37.6236 -37.6219 -37.6013 -37.5997 -37.5758 -37.5746 -37.5683
   -12.3964 -11.9284 -11.7106 -11.7057 -11.6980 -11.5507 -11.5349 -11.5307
   -11.4896 -11.4822 -11.4641 -11.2219 -11.2200 -11.2089 -11.1827 -11.1132
   -11.1052 -11.0964 -10.8868 -10.8060  -9.1267  -9.1227  -9.1178  -9.0219
    -8.7091  -2.9035  -2.8962  -2.8942  -2.6829  -2.6681  -2.6567  -2.4554
    -2.4537  -2.4484  -2.4481  -2.4315  -2.4279  -2.3457  -2.3108  -2.2983
    -2.2934  -2.1929  -2.1873  -2.1823  -2.1612  -2.1418  -1.7788  -1.6632
    -1.6559  -1.6082  -1.5193  -1.4507  -1.4342  -1.4074  -1.3695  -1.3583
    -1.3536  -1.3423  -1.3421  -1.3063  -1.2392  -1.2170  -1.2142  -1.2072
    -1.1942  -1.1852  -1.1170  -1.1085  -1.1057  -0.9506  -0.9273  -0.8454
    -0.8301  -0.8142  -0.7849  -0.7667  -0.7529  -0.7386  -0.7267  -0.7184
    -0.7140  -0.7042  -0.5648  -0.5279  -0.5233  -0.3022  -0.2739  -0.2706
     0.6431   0.9313   0.9367   0.9407   1.1982   1.2021   1.2029   1.2047
     1.2085   1.2103   1.2146   1.2171   1.3152   1.6450   1.6536   1.6651
     1.8193   1.8311   1.8594   2.0651   2.0720   2.0738   2.1457   2.2621
     2.2775   2.2964   2.3859   2.3943   2.3988   2.4984   2.5042   2.5086
     2.5233   2.5308   2.5373   2.5724   2.5824   2.5865   2.6178   2.7730
     2.7754   2.8045   2.8124   2.8239   3.2266   3.2401   3.2502   3.3465
     3.3547   3.4079   3.4215   3.4241   3.4312   3.4406   3.4448   3.5377
     3.5489   3.5602   3.5695   3.5803   3.6567   3.7045   3.7167   3.7179
     3.7405   3.7563   3.7638   3.7907   3.8010   3.8077   3.8225   3.8294
     3.8347   3.8539   4.0460   4.0697   4.0971   4.2110   4.2219   4.2268
     4.2320   4.2371   4.3502   4.3609   4.3822   4.4144   4.4154   4.4410
     4.4605   4.4687   4.5040   4.5057   4.5105   4.5201   4.5311   4.5329
     4.5872   4.5925   4.6751   4.7378   4.7418   4.8195   4.8315   4.8409
     4.8619   4.8784   4.8874   4.8940   4.9213   4.9633   4.9692   4.9953
     5.0066   5.0268   5.0424   5.0470   5.1092   5.1690   5.1929   5.2060
     5.2627   5.2864   5.4606   5.4767   5.4833   5.4903   5.5754   5.5801
     5.6112   5.6170   5.6307   5.6411   5.6448   5.6750   5.7230   5.7307
     5.7670   5.7707   5.7764   5.7823   5.7987   5.8071   5.8198   5.8260
     5.8715   5.9147   5.9182   5.9236   5.9419   5.9458   5.9507   5.9705
     5.9901   6.0048   6.0558   6.0607   6.0745   6.0747   6.0791   6.0902
     6.1030   6.1073   6.1353   6.1455   6.1508   6.1719   6.1765   6.2093
     6.2759   6.2810   6.2917   6.3002   6.3034   6.3465   6.3533   6.3591
     6.3606   6.3681   6.3841   6.4057   6.4158   6.4458   6.4529   6.4882
     6.6550   6.6562   6.6606   6.6629   6.6697   6.6844   6.7108   6.7367
     6.7468   6.7795   6.7905   6.7979   6.8116   6.8262   6.8436   6.9234

          k = 0.0000 0.2887 0.0000 (108355 PWs)   bands (ev):

   -66.9345 -66.9115 -66.9019 -66.9010 -66.8862 -66.8835 -66.8817 -66.8781
   -66.8692 -66.8674 -66.8650 -66.8632 -66.8593 -66.8583 -66.8565 -66.8552
   -66.8484 -66.8441 -66.8425 -66.8356 -66.8346 -66.8333 -66.8297 -66.8263
   -66.6870 -66.6710 -66.6669 -66.6655 -66.6399 -66.6383 -66.6362 -66.6297
   -66.6292 -66.6270 -66.6243 -66.6227 -66.5899 -66.5650 -66.5592 -66.5542
   -66.5501 -66.5450 -66.5108 -66.5025 -66.4998 -66.4955 -66.4943 -66.4930
   -38.7302 -38.7098 -38.7021 -38.6951 -38.6045 -38.6023 -38.5976 -38.5747
   -38.5672 -38.5605 -38.5536 -38.5514 -38.5352 -38.5112 -38.4984 -38.4957
   -38.4801 -38.4779 -38.4755 -38.4552 -38.4531 -38.4426 -38.4367 -38.4279
   -38.4055 -38.4033 -38.4024 -38.3777 -38.3718 -38.3644 -38.3601 -38.3544
   -38.3184 -38.3151 -38.3092 -38.2986 -38.2905 -38.2899 -38.2726 -38.2693
   -38.2669 -38.2560 -38.2496 -38.2461 -38.2276 -38.2251 -38.2223 -38.2209
   -38.2188 -38.2137 -38.2108 -38.2047 -38.2038 -38.2015 -38.1939 -38.1933
   -38.1897 -38.1880 -38.1838 -38.1765 -38.1721 -38.1620 -38.1551 -38.1503
   -38.1500 -38.1482 -38.1445 -38.1415 -38.1351 -38.1310 -38.1259 -38.1073
   -38.0963 -38.0937 -38.0880 -38.0838 -38.0810 -38.0790 -38.0766 -38.0660
   -38.0618 -38.0586 -38.0531 -38.0494 -38.0403 -38.0372 -38.0332 -38.0291
   -38.0263 -38.0183 -37.9884 -37.9820 -37.9790 -37.9771 -37.9711 -37.9665
   -37.9624 -37.9571 -37.9473 -37.9451 -37.9437 -37.9353 -37.9333 -37.9305
   -37.9044 -37.8999 -37.8931 -37.8857 -37.8799 -37.8754 -37.8707 -37.8682
   -37.8663 -37.8635 -37.8620 -37.8588 -37.8521 -37.8452 -37.8415 -37.8397
   -37.8380 -37.8361 -37.8330 -37.8307 -37.8027 -37.8020 -37.8011 -37.7887
   -37.7882 -37.7851 -37.7742 -37.7678 -37.7575 -37.7494 -37.7444 -37.7404
   -37.6538 -37.6216 -37.6190 -37.6015 -37.5959 -37.5819 -37.5755 -37.5705
   -12.3321 -11.9050 -11.8830 -11.7564 -11.7492 -11.6004 -11.5204 -11.5106
   -11.4396 -11.4313 -11.3710 -11.2164 -11.2017 -11.1989 -11.1389 -11.1327
   -11.1225 -11.0573 -10.9212 -10.8422  -9.1293  -9.1205  -9.1061  -9.0346
    -8.7091  -2.8735  -2.8659  -2.8230  -2.7151  -2.6402  -2.6313  -2.6025
    -2.5992  -2.5961  -2.4771  -2.4712  -2.3380  -2.2687  -2.2448  -2.2324
    -2.2225  -2.1967  -2.1464  -2.0929  -2.0867  -2.0435  -1.8721  -1.7532
    -1.6614  -1.6434  -1.5833  -1.5362  -1.4828  -1.4679  -1.4348  -1.3750
    -1.3562  -1.3239  -1.3109  -1.2850  -1.2676  -1.2420  -1.2129  -1.2013
    -1.1891  -1.1460  -1.1279  -1.1174  -1.0113  -0.9373  -0.9192  -0.8845
    -0.8440  -0.8024  -0.7855  -0.7613  -0.7434  -0.7276  -0.7235  -0.7028
    -0.6864  -0.6595  -0.5919  -0.5225  -0.4827  -0.3650  -0.3165  -0.2943
     0.7374   0.9292   0.9300   0.9401   1.1613   1.1643   1.1702   1.1885
     1.2204   1.2248   1.2300   1.2809   1.3712   1.6045   1.6791   1.6952
     1.8483   1.8644   1.9098   2.0745   2.0816   2.1133   2.1569   2.2278
     2.2401   2.3542   2.3716   2.3780   2.4024   2.4949   2.5036   2.5298
     2.5349   2.5410   2.5913   2.6271   2.6329   2.6415   2.6793   2.7077
     2.8040   2.8208   2.8282   2.9075   3.0779   3.1468   3.2275   3.2789
     3.2836   3.2989   3.3088   3.3392   3.4360   3.4409   3.4629   3.4818
     3.4846   3.5057   3.6052   3.6316   3.6627   3.6779   3.6913   3.7405
     3.7510   3.7784   3.7911   3.8004   3.8370   3.8467   3.8690   3.9078
     4.0583   4.0706   4.0884   4.0944   4.1176   4.1268   4.1411   4.2309
     4.2419   4.2569   4.3020   4.3133   4.3354   4.3558   4.3771   4.3894
     4.4039   4.4152   4.4537   4.4662   4.4977   4.5265   4.5413   4.5461
     4.5690   4.6166   4.6370   4.7128   4.7400   4.7771   4.8094   4.8259
     4.8624   4.8961   4.9110   4.9419   4.9504   5.0035   5.0105   5.0188
     5.0362   5.0467   5.0589   5.1133   5.1424   5.1906   5.2208   5.2374
     5.2466   5.2742   5.3669   5.4079   5.4264   5.4439   5.4819   5.5364
     5.5408   5.5604   5.5642   5.5911   5.6258   5.6354   5.6550   5.6641
     5.6805   5.7564   5.7700   5.7961   5.8043   5.8283   5.8314   5.8488
     5.8684   5.8742   5.8835   5.8969   5.9151   5.9549   5.9683   5.9731
     5.9812   6.0128   6.0258   6.0388   6.0467   6.0660   6.0827   6.0958
     6.1044   6.1174   6.1315   6.1380   6.1500   6.1570   6.1865   6.2711
     6.2851   6.2964   6.3302   6.3399   6.3455   6.3524   6.3587   6.3905
     6.4054   6.4104   6.4166   6.4602   6.4814   6.4890   6.4978   6.5290
     6.5369   6.5447   6.6137   6.6226   6.6412   6.6948   6.7244   6.7283
     6.7480   6.7704   6.7897   6.8016   6.8256   6.8479   6.8943   6.9004

          k = 0.0000-0.5774 0.0000 (108310 PWs)   bands (ev):

   -66.9254 -66.9245 -66.9040 -66.9032 -66.8804 -66.8776 -66.8760 -66.8746
   -66.8728 -66.8706 -66.8661 -66.8651 -66.8611 -66.8601 -66.8596 -66.8569
   -66.8458 -66.8404 -66.8389 -66.8375 -66.8360 -66.8324 -66.8299 -66.8281
   -66.6808 -66.6793 -66.6674 -66.6661 -66.6372 -66.6357 -66.6318 -66.6312
   -66.6292 -66.6289 -66.6260 -66.6242 -66.5891 -66.5661 -66.5591 -66.5559
   -66.5497 -66.5443 -66.5088 -66.5027 -66.4987 -66.4958 -66.4957 -66.4934
   -38.7206 -38.7193 -38.6981 -38.6918 -38.5936 -38.5928 -38.5914 -38.5881
   -38.5691 -38.5668 -38.5641 -38.5612 -38.5278 -38.5275 -38.5009 -38.4984
   -38.4685 -38.4663 -38.4647 -38.4621 -38.4589 -38.4573 -38.4408 -38.4376
   -38.3937 -38.3912 -38.3842 -38.3841 -38.3743 -38.3731 -38.3573 -38.3572
   -38.3272 -38.3239 -38.2888 -38.2879 -38.2837 -38.2820 -38.2664 -38.2640
   -38.2593 -38.2589 -38.2572 -38.2511 -38.2404 -38.2382 -38.2215 -38.2198
   -38.2187 -38.2158 -38.2136 -38.2115 -38.2031 -38.2021 -38.2005 -38.1972
   -38.1951 -38.1832 -38.1814 -38.1795 -38.1758 -38.1751 -38.1493 -38.1471
   -38.1443 -38.1378 -38.1336 -38.1300 -38.1260 -38.1208 -38.1173 -38.1136
   -38.1082 -38.1060 -38.0957 -38.0890 -38.0779 -38.0776 -38.0697 -38.0690
   -38.0638 -38.0607 -38.0564 -38.0507 -38.0492 -38.0415 -38.0332 -38.0320
   -38.0276 -38.0155 -37.9854 -37.9828 -37.9798 -37.9714 -37.9690 -37.9663
   -37.9570 -37.9523 -37.9457 -37.9439 -37.9417 -37.9342 -37.9309 -37.9178
   -37.9141 -37.9013 -37.8964 -37.8888 -37.8785 -37.8760 -37.8706 -37.8684
   -37.8671 -37.8629 -37.8602 -37.8564 -37.8482 -37.8457 -37.8443 -37.8428
   -37.8383 -37.8361 -37.8348 -37.8309 -37.8025 -37.8022 -37.7935 -37.7927
   -37.7860 -37.7854 -37.7756 -37.7750 -37.7531 -37.7514 -37.7457 -37.7409
   -37.6529 -37.6189 -37.6152 -37.5997 -37.5929 -37.5908 -37.5773 -37.5719
   -12.1557 -12.1518 -11.7895 -11.7824 -11.7629 -11.7584 -11.5235 -11.5159
   -11.3658 -11.3608 -11.2551 -11.2540 -11.2282 -11.2073 -11.1610 -11.1457
   -11.0184 -11.0112 -10.9454 -10.9358  -9.1320  -9.1232  -9.0725  -9.0644
    -8.7091  -2.8408  -2.8375  -2.7380  -2.7336  -2.6738  -2.6681  -2.6624
    -2.6573  -2.5386  -2.5273  -2.4273  -2.4204  -2.2618  -2.2523  -2.2022
    -2.1959  -2.1540  -2.1400  -2.0078  -1.9911  -1.9301  -1.9107  -1.7715
    -1.7372  -1.7268  -1.6028  -1.5859  -1.5480  -1.4928  -1.4566  -1.4424
    -1.4310  -1.3398  -1.3252  -1.3044  -1.2877  -1.2190  -1.2075  -1.1607
    -1.1437  -1.1282  -1.1141  -1.0140  -1.0000  -0.9387  -0.9337  -0.9073
    -0.8896  -0.7989  -0.7898  -0.7518  -0.7434  -0.7314  -0.7073  -0.6901
    -0.6364  -0.6252  -0.5525  -0.5461  -0.4878  -0.4447  -0.3373  -0.3141
     0.8707   0.8749   0.9224   0.9326   1.1706   1.1770   1.1908   1.1959
     1.2044   1.2074   1.2443   1.2463   1.4689   1.4778   1.6968   1.7192
     1.9784   1.9856   1.9993   2.0028   2.1079   2.1153   2.1421   2.1536
     2.2737   2.2798   2.4439   2.4480   2.4542   2.4575   2.4980   2.5063
     2.5435   2.5484   2.5497   2.5558   2.6645   2.6739   2.8080   2.8164
     2.8317   2.8370   2.8981   2.9026   3.1018   3.1055   3.1137   3.1191
     3.1724   3.1781   3.2796   3.2929   3.3947   3.4013   3.4484   3.4760
     3.4968   3.5012   3.5842   3.5921   3.6725   3.6936   3.7330   3.7483
     3.7984   3.8058   3.8632   3.8702   3.9047   3.9632   3.9693   3.9767
     4.0140   4.0191   4.0461   4.0582   4.0745   4.0917   4.1886   4.2130
     4.2161   4.2256   4.3230   4.3343   4.3528   4.3716   4.3889   4.4038
     4.4190   4.4329   4.4393   4.4613   4.4785   4.5145   4.5171   4.5437
     4.5495   4.5846   4.6693   4.6747   4.6944   4.7174   4.7256   4.7311
     4.7496   4.7670   4.8788   4.9043   5.0235   5.0662   5.0704   5.0885
     5.1130   5.1260   5.1318   5.1524   5.1895   5.1965   5.2150   5.2215
     5.2579   5.2678   5.3160   5.4040   5.4211   5.4233   5.4306   5.4332
     5.4938   5.4987   5.5224   5.5864   5.6189   5.6244   5.6382   5.6497
     5.6595   5.6735   5.6883   5.7511   5.7956   5.8025   5.8208   5.8263
     5.8315   5.8507   5.8607   5.8656   5.9172   5.9214   5.9470   5.9562
     5.9596   5.9703   5.9924   6.0003   6.0465   6.0658   6.0793   6.0943
     6.1150   6.1338   6.1448   6.1713   6.2429   6.2466   6.2544   6.2635
     6.2727   6.2745   6.3000   6.3079   6.3085   6.3151   6.4240   6.4334
     6.4436   6.4541   6.4673   6.4801   6.5067   6.5140   6.5158   6.5189
     6.5339   6.5393   6.6024   6.6033   6.6849   6.6920   6.7027   6.7259
     6.7411   6.7506   6.8151   6.8209   6.9315   6.9355   6.9522   6.9625

          k = 0.2500 0.4330 0.0000 (108308 PWs)   bands (ev):

   -66.9281 -66.9181 -66.9141 -66.8922 -66.8876 -66.8786 -66.8744 -66.8740
   -66.8717 -66.8684 -66.8655 -66.8651 -66.8643 -66.8613 -66.8605 -66.8506
   -66.8493 -66.8408 -66.8396 -66.8374 -66.8346 -66.8315 -66.8306 -66.8283
   -66.6823 -66.6743 -66.6739 -66.6627 -66.6389 -66.6336 -66.6330 -66.6320
   -66.6281 -66.6273 -66.6263 -66.6251 -66.5891 -66.5665 -66.5598 -66.5539
   -66.5502 -66.5448 -66.5093 -66.5023 -66.4983 -66.4959 -66.4955 -66.4939
   -38.7228 -38.7132 -38.7064 -38.6873 -38.5966 -38.5953 -38.5861 -38.5853
   -38.5708 -38.5687 -38.5627 -38.5616 -38.5285 -38.5206 -38.5169 -38.4804
   -38.4779 -38.4682 -38.4662 -38.4616 -38.4541 -38.4508 -38.4456 -38.4398
   -38.3916 -38.3898 -38.3891 -38.3777 -38.3769 -38.3645 -38.3620 -38.3591
   -38.3518 -38.2935 -38.2920 -38.2900 -38.2879 -38.2752 -38.2746 -38.2651
   -38.2615 -38.2585 -38.2545 -38.2496 -38.2366 -38.2286 -38.2274 -38.2220
   -38.2213 -38.2173 -38.2152 -38.2109 -38.2057 -38.2035 -38.2010 -38.1944
   -38.1909 -38.1902 -38.1856 -38.1779 -38.1695 -38.1665 -38.1649 -38.1456
   -38.1403 -38.1360 -38.1330 -38.1301 -38.1266 -38.1209 -38.1180 -38.1132
   -38.1043 -38.1038 -38.0997 -38.0925 -38.0811 -38.0719 -38.0701 -38.0649
   -38.0628 -38.0596 -38.0589 -38.0533 -38.0498 -38.0460 -38.0338 -38.0292
   -38.0240 -38.0170 -37.9850 -37.9845 -37.9809 -37.9738 -37.9707 -37.9636
   -37.9617 -37.9484 -37.9459 -37.9404 -37.9357 -37.9339 -37.9306 -37.9268
   -37.9114 -37.9004 -37.8905 -37.8896 -37.8828 -37.8748 -37.8743 -37.8712
   -37.8637 -37.8621 -37.8599 -37.8581 -37.8487 -37.8483 -37.8431 -37.8414
   -37.8365 -37.8352 -37.8346 -37.8309 -37.8035 -37.8021 -37.7969 -37.7908
   -37.7887 -37.7803 -37.7794 -37.7723 -37.7539 -37.7507 -37.7458 -37.7407
   -37.6526 -37.6205 -37.6128 -37.6031 -37.5927 -37.5897 -37.5760 -37.5723
   -12.2110 -11.9977 -11.9965 -11.7997 -11.6612 -11.6553 -11.6353 -11.4549
   -11.3860 -11.3097 -11.3045 -11.2965 -11.2428 -11.2317 -11.1025 -11.0911
   -11.0362 -11.0188 -10.9874 -10.9100  -9.1428  -9.0964  -9.0950  -9.0578
    -8.7091  -2.8891  -2.7900  -2.7833  -2.7589  -2.6500  -2.6480  -2.6050
    -2.5784  -2.5179  -2.5123  -2.4835  -2.4793  -2.4281  -2.2537  -2.1159
    -2.1079  -2.1000  -2.0707  -2.0302  -2.0192  -1.9779  -1.9693  -1.8648
    -1.7551  -1.6647  -1.6086  -1.5968  -1.5241  -1.4834  -1.4600  -1.4154
    -1.3967  -1.3387  -1.2918  -1.2797  -1.2630  -1.2571  -1.2388  -1.2286
    -1.1847  -1.0686  -1.0619  -1.0257  -1.0230  -0.9833  -0.9443  -0.8480
    -0.8259  -0.8114  -0.7817  -0.7680  -0.7504  -0.7259  -0.7251  -0.7060
    -0.6835  -0.6176  -0.5914  -0.5475  -0.4423  -0.4110  -0.3881  -0.2814
     0.8418   0.9053   0.9074   0.9488   1.1403   1.1516   1.1853   1.1921
     1.1942   1.2531   1.2587   1.2609   1.4401   1.5614   1.5762   1.7656
     1.9195   2.0281   2.0310   2.0651   2.1253   2.1394   2.1437   2.1489
     2.2267   2.3052   2.3176   2.3760   2.4446   2.4476   2.4764   2.4837
     2.5241   2.5821   2.6439   2.6478   2.6649   2.7416   2.7469   2.8009
     2.8659   2.8827   2.8901   2.9177   2.9865   2.9907   3.0106   3.0967
     3.2388   3.3146   3.3526   3.3719   3.4013   3.4225   3.4354   3.4974
     3.5106   3.5198   3.5328   3.6172   3.6201   3.6300   3.7087   3.7673
     3.7810   3.7950   3.8330   3.8364   3.8764   3.9103   3.9298   3.9594
     4.0807   4.0919   4.1099   4.1278   4.1327   4.1495   4.1631   4.1872
     4.2253   4.2509   4.2839   4.2975   4.3026   4.3558   4.3615   4.3839
     4.4020   4.4352   4.4559   4.4618   4.4898   4.5049   4.5305   4.5380
     4.6162   4.6212   4.6471   4.6552   4.6636   4.6785   4.7322   4.7368
     4.7718   4.9077   4.9146   4.9373   4.9616   4.9682   4.9881   5.0035
     5.0225   5.0838   5.0991   5.1473   5.1903   5.2248   5.2486   5.2542
     5.2868   5.3239   5.3739   5.3918   5.4042   5.4154   5.4766   5.4949
     5.5071   5.5103   5.5303   5.5556   5.5714   5.5830   5.6389   5.6667
     5.6737   5.7011   5.7374   5.7955   5.7973   5.8067   5.8276   5.8352
     5.8506   5.8532   5.8593   5.8677   5.8869   5.9264   5.9382   5.9433
     5.9481   5.9626   5.9908   6.0018   6.0273   6.0404   6.0686   6.0947
     6.1109   6.1309   6.1473   6.1538   6.1771   6.1938   6.2018   6.2566
     6.2728   6.2786   6.3078   6.3148   6.3382   6.3655   6.3751   6.4028
     6.4235   6.4353   6.4460   6.4530   6.5280   6.5330   6.5597   6.5884
     6.5929   6.5998   6.6395   6.6431   6.6811   6.7127   6.7207   6.7390
     6.7411   6.7822   6.8077   6.8188   6.8355   6.8718   6.9321   6.9421

          k =-0.2500 0.1443 0.0000 (108355 PWs)   bands (ev):

   -66.9345 -66.9107 -66.9042 -66.9000 -66.8854 -66.8832 -66.8812 -66.8787
   -66.8701 -66.8666 -66.8650 -66.8630 -66.8605 -66.8584 -66.8567 -66.8548
   -66.8469 -66.8453 -66.8419 -66.8360 -66.8349 -66.8326 -66.8301 -66.8261
   -66.6870 -66.6709 -66.6665 -66.6660 -66.6391 -66.6383 -66.6367 -66.6300
   -66.6295 -66.6265 -66.6246 -66.6225 -66.5899 -66.5646 -66.5598 -66.5540
   -66.5502 -66.5450 -66.5103 -66.5032 -66.4998 -66.4956 -66.4941 -66.4929
   -38.7304 -38.7089 -38.7032 -38.6947 -38.6046 -38.6009 -38.5989 -38.5714
   -38.5696 -38.5610 -38.5544 -38.5511 -38.5366 -38.5133 -38.4982 -38.4907
   -38.4821 -38.4765 -38.4757 -38.4573 -38.4499 -38.4451 -38.4365 -38.4282
   -38.4054 -38.4033 -38.4015 -38.3773 -38.3716 -38.3655 -38.3599 -38.3533
   -38.3199 -38.3157 -38.3095 -38.2979 -38.2909 -38.2888 -38.2736 -38.2687
   -38.2671 -38.2520 -38.2512 -38.2471 -38.2280 -38.2244 -38.2238 -38.2204
   -38.2195 -38.2141 -38.2100 -38.2057 -38.2033 -38.2018 -38.1952 -38.1939
   -38.1900 -38.1875 -38.1817 -38.1762 -38.1692 -38.1644 -38.1576 -38.1510
   -38.1504 -38.1453 -38.1440 -38.1424 -38.1349 -38.1306 -38.1270 -38.1034
   -38.0982 -38.0941 -38.0896 -38.0834 -38.0813 -38.0792 -38.0780 -38.0644
   -38.0623 -38.0595 -38.0493 -38.0447 -38.0418 -38.0388 -38.0375 -38.0287
   -38.0236 -38.0194 -37.9877 -37.9810 -37.9788 -37.9779 -37.9729 -37.9651
   -37.9626 -37.9559 -37.9494 -37.9436 -37.9427 -37.9373 -37.9327 -37.9308
   -37.9046 -37.9005 -37.8905 -37.8857 -37.8838 -37.8741 -37.8712 -37.8676
   -37.8660 -37.8640 -37.8619 -37.8596 -37.8519 -37.8454 -37.8417 -37.8398
   -37.8378 -37.8361 -37.8327 -37.8301 -37.8033 -37.8011 -37.8007 -37.7901
   -37.7881 -37.7846 -37.7748 -37.7672 -37.7573 -37.7495 -37.7441 -37.7409
   -37.6542 -37.6203 -37.6200 -37.6009 -37.5961 -37.5786 -37.5759 -37.5734
   -12.3321 -11.9042 -11.8838 -11.7582 -11.7480 -11.6040 -11.5157 -11.5060
   -11.4414 -11.4283 -11.3737 -11.2168 -11.2129 -11.1999 -11.1400 -11.1273
   -11.1188 -11.0575 -10.9201 -10.8422  -9.1259  -9.1250  -9.1050  -9.0346
    -8.7091  -2.8668  -2.8642  -2.8299  -2.7201  -2.6430  -2.6303  -2.6017
    -2.5971  -2.5854  -2.4771  -2.4745  -2.3433  -2.2705  -2.2425  -2.2310
    -2.2234  -2.2025  -2.1380  -2.0943  -2.0846  -2.0415  -1.8723  -1.7702
    -1.6684  -1.6389  -1.5772  -1.5186  -1.4960  -1.4598  -1.4409  -1.3758
    -1.3557  -1.3249  -1.3098  -1.2877  -1.2752  -1.2407  -1.2082  -1.2014
    -1.1861  -1.1382  -1.1272  -1.1176  -1.0225  -0.9389  -0.9221  -0.8815
    -0.8483  -0.7951  -0.7882  -0.7666  -0.7422  -0.7266  -0.7229  -0.7021
    -0.6848  -0.6553  -0.5817  -0.5273  -0.4845  -0.3691  -0.3099  -0.2972
     0.7374   0.9267   0.9353   0.9376   1.1625   1.1653   1.1674   1.1885
     1.2214   1.2231   1.2303   1.2815   1.3714   1.6074   1.6810   1.6903
     1.8505   1.8622   1.9072   2.0786   2.0810   2.1123   2.1575   2.2188
     2.2382   2.3570   2.3746   2.3882   2.4003   2.4983   2.5062   2.5294
     2.5355   2.5420   2.5881   2.6263   2.6311   2.6450   2.6772   2.7107
     2.8006   2.8237   2.8294   2.9024   3.0799   3.1440   3.2297   3.2768
     3.2836   3.2946   3.3100   3.3433   3.4323   3.4429   3.4610   3.4713
     3.4891   3.5099   3.6090   3.6326   3.6570   3.6691   3.6906   3.7444
     3.7511   3.7799   3.7904   3.8001   3.8402   3.8508   3.8660   3.9034
     4.0633   4.0725   4.0899   4.0981   4.1012   4.1324   4.1417   4.2354
     4.2367   4.2531   4.3078   4.3154   4.3338   4.3504   4.3676   4.3830
     4.4034   4.4109   4.4571   4.4748   4.4947   4.5275   4.5420   4.5514
     4.5724   4.6186   4.6353   4.7093   4.7452   4.8001   4.8143   4.8239
     4.8468   4.8913   4.9015   4.9305   4.9508   4.9990   5.0083   5.0172
     5.0338   5.0460   5.0854   5.1113   5.1644   5.1917   5.2145   5.2389
     5.2479   5.2700   5.3691   5.3945   5.4306   5.4450   5.4884   5.5349
     5.5400   5.5611   5.5689   5.5865   5.6253   5.6339   5.6440   5.6676
     5.6728   5.7448   5.7717   5.7986   5.8144   5.8257   5.8410   5.8465
     5.8674   5.8726   5.8781   5.8934   5.9220   5.9592   5.9703   5.9743
     5.9861   6.0105   6.0312   6.0398   6.0566   6.0698   6.0808   6.0937
     6.0972   6.1203   6.1287   6.1384   6.1471   6.1602   6.1814   6.2706
     6.2858   6.2953   6.3251   6.3384   6.3472   6.3544   6.3609   6.3996
     6.4050   6.4123   6.4207   6.4562   6.4762   6.4855   6.4886   6.5250
     6.5362   6.5498   6.6135   6.6219   6.6448   6.6884   6.7238   6.7390
     6.7463   6.7773   6.7944   6.8018   6.8211   6.8461   6.8876   6.9079

          k = 0.2500 0.1443 0.0000 (108355 PWs)   bands (ev):

   -66.9345 -66.9115 -66.9020 -66.9007 -66.8867 -66.8833 -66.8815 -66.8780
   -66.8693 -66.8670 -66.8654 -66.8635 -66.8590 -66.8579 -66.8565 -66.8553
   -66.8480 -66.8456 -66.8418 -66.8356 -66.8347 -66.8325 -66.8300 -66.8264
   -66.6870 -66.6712 -66.6664 -66.6657 -66.6398 -66.6389 -66.6359 -66.6300
   -66.6283 -66.6275 -66.6240 -66.6230 -66.5899 -66.5660 -66.5572 -66.5547
   -66.5505 -66.5452 -66.5112 -66.5019 -66.4998 -66.4954 -66.4942 -66.4934
   -38.7303 -38.7095 -38.7026 -38.6950 -38.6053 -38.6017 -38.5973 -38.5758
   -38.5663 -38.5602 -38.5537 -38.5517 -38.5351 -38.5107 -38.5003 -38.4948
   -38.4805 -38.4769 -38.4758 -38.4558 -38.4527 -38.4420 -38.4370 -38.4278
   -38.4058 -38.4034 -38.4024 -38.3778 -38.3720 -38.3636 -38.3606 -38.3543
   -38.3182 -38.3146 -38.3096 -38.2983 -38.2910 -38.2900 -38.2730 -38.2692
   -38.2662 -38.2566 -38.2490 -38.2459 -38.2278 -38.2247 -38.2226 -38.2205
   -38.2193 -38.2127 -38.2116 -38.2052 -38.2040 -38.2020 -38.1942 -38.1925
   -38.1899 -38.1881 -38.1837 -38.1768 -38.1722 -38.1616 -38.1558 -38.1507
   -38.1495 -38.1481 -38.1434 -38.1418 -38.1348 -38.1305 -38.1267 -38.1072
   -38.0963 -38.0939 -38.0875 -38.0842 -38.0820 -38.0792 -38.0762 -38.0659
   -38.0616 -38.0589 -38.0526 -38.0491 -38.0396 -38.0374 -38.0335 -38.0290
   -38.0255 -38.0190 -37.9883 -37.9819 -37.9793 -37.9766 -37.9712 -37.9669
   -37.9625 -37.9579 -37.9473 -37.9451 -37.9435 -37.9350 -37.9334 -37.9301
   -37.9042 -37.9001 -37.8939 -37.8855 -37.8790 -37.8756 -37.8712 -37.8679
   -37.8660 -37.8638 -37.8621 -37.8584 -37.8526 -37.8438 -37.8421 -37.8396
   -37.8384 -37.8356 -37.8325 -37.8319 -37.8027 -37.8018 -37.8011 -37.7896
   -37.7876 -37.7850 -37.7744 -37.7676 -37.7575 -37.7495 -37.7442 -37.7404
   -37.6535 -37.6221 -37.6193 -37.6005 -37.5970 -37.5818 -37.5748 -37.5707
   -12.3322 -11.9056 -11.8829 -11.7563 -11.7478 -11.6001 -11.5211 -11.5105
   -11.4380 -11.4351 -11.3702 -11.2153 -11.2024 -11.1979 -11.1380 -11.1309
   -11.1249 -11.0578 -10.9213 -10.8423  -9.1262  -9.1254  -9.1044  -9.0345
    -8.7091  -2.8733  -2.8664  -2.8231  -2.7125  -2.6397  -2.6335  -2.6026
    -2.5984  -2.5968  -2.4781  -2.4691  -2.3403  -2.2703  -2.2422  -2.2327
    -2.2242  -2.1943  -2.1493  -2.0911  -2.0846  -2.0443  -1.8760  -1.7434
    -1.6710  -1.6474  -1.5758  -1.5431  -1.4925  -1.4686  -1.4139  -1.3727
    -1.3621  -1.3246  -1.3107  -1.2896  -1.2571  -1.2457  -1.2147  -1.2000
    -1.1880  -1.1459  -1.1304  -1.1168  -1.0094  -0.9371  -0.9191  -0.8819
    -0.8421  -0.8036  -0.7859  -0.7701  -0.7440  -0.7309  -0.7195  -0.7016
    -0.6835  -0.6622  -0.5969  -0.5156  -0.4853  -0.3648  -0.3125  -0.2965
     0.7373   0.9269   0.9353   0.9375   1.1619   1.1655   1.1665   1.1875
     1.2214   1.2237   1.2307   1.2819   1.3712   1.6032   1.6773   1.6986
     1.8482   1.8662   1.9084   2.0744   2.0814   2.1137   2.1571   2.2322
     2.2395   2.3544   2.3686   2.3775   2.4017   2.4953   2.5038   2.5272
     2.5337   2.5398   2.5894   2.6271   2.6362   2.6398   2.6792   2.7077
     2.8060   2.8197   2.8282   2.9085   3.0769   3.1520   3.2237   3.2764
     3.2831   3.3000   3.3076   3.3420   3.4374   3.4392   3.4645   3.4779
     3.4853   3.5097   3.6061   3.6322   3.6575   3.6766   3.6906   3.7342
     3.7561   3.7811   3.7946   3.8002   3.8440   3.8478   3.8637   3.9126
     4.0640   4.0734   4.0862   4.0894   4.1169   4.1260   4.1416   4.2268
     4.2434   4.2528   4.2999   4.3137   4.3345   4.3595   4.3744   4.3881
     4.4043   4.4158   4.4552   4.4721   4.4967   4.5242   4.5403   4.5503
     4.5666   4.6152   4.6302   4.7196   4.7441   4.7786   4.8040   4.8309
     4.8646   4.8957   4.9100   4.9416   4.9496   5.0027   5.0073   5.0203
     5.0393   5.0445   5.0611   5.1106   5.1353   5.1992   5.2207   5.2340
     5.2464   5.2747   5.3636   5.4030   5.4257   5.4463   5.4856   5.5381
     5.5441   5.5586   5.5618   5.5882   5.6242   5.6361   5.6517   5.6676
     5.6818   5.7637   5.7748   5.7927   5.8059   5.8213   5.8326   5.8540
     5.8681   5.8741   5.8829   5.8983   5.9197   5.9558   5.9693   5.9700
     5.9816   6.0082   6.0339   6.0401   6.0482   6.0611   6.0846   6.0908
     6.1044   6.1087   6.1283   6.1394   6.1504   6.1590   6.1920   6.2735
     6.2816   6.2983   6.3263   6.3393   6.3460   6.3517   6.3557   6.3873
     6.4051   6.4106   6.4143   6.4608   6.4798   6.4926   6.5011   6.5296
     6.5395   6.5426   6.6131   6.6236   6.6361   6.6938   6.7225   6.7321
     6.7457   6.7694   6.7929   6.8061   6.8285   6.8469   6.8905   6.9022

          k = 0.5000-0.2887 0.0000 (108310 PWs)   bands (ev):

   -66.9266 -66.9228 -66.9060 -66.9021 -66.8800 -66.8762 -66.8755 -66.8745
   -66.8719 -66.8709 -66.8697 -66.8636 -66.8620 -66.8609 -66.8591 -66.8564
   -66.8447 -66.8402 -66.8392 -66.8377 -66.8358 -66.8324 -66.8310 -66.8273
   -66.6802 -66.6798 -66.6671 -66.6665 -66.6361 -66.6349 -66.6325 -66.6324
   -66.6298 -66.6291 -66.6249 -66.6244 -66.5891 -66.5654 -66.5606 -66.5551
   -66.5497 -66.5443 -66.5067 -66.5052 -66.4990 -66.4962 -66.4948 -66.4933
   -38.7230 -38.7164 -38.6992 -38.6910 -38.5977 -38.5906 -38.5884 -38.5844
   -38.5727 -38.5695 -38.5637 -38.5606 -38.5324 -38.5275 -38.5000 -38.4925
   -38.4700 -38.4682 -38.4625 -38.4606 -38.4595 -38.4583 -38.4405 -38.4388
   -38.3941 -38.3902 -38.3836 -38.3834 -38.3752 -38.3732 -38.3583 -38.3552
   -38.3286 -38.3246 -38.2901 -38.2882 -38.2823 -38.2816 -38.2660 -38.2642
   -38.2584 -38.2577 -38.2562 -38.2524 -38.2414 -38.2389 -38.2208 -38.2200
   -38.2194 -38.2159 -38.2135 -38.2120 -38.2065 -38.2032 -38.1997 -38.1967
   -38.1914 -38.1844 -38.1810 -38.1788 -38.1771 -38.1744 -38.1522 -38.1469
   -38.1438 -38.1338 -38.1331 -38.1312 -38.1240 -38.1219 -38.1173 -38.1150
   -38.1094 -38.1044 -38.0991 -38.0926 -38.0755 -38.0749 -38.0705 -38.0683
   -38.0604 -38.0585 -38.0572 -38.0512 -38.0492 -38.0437 -38.0391 -38.0257
   -38.0233 -38.0196 -37.9846 -37.9816 -37.9805 -37.9718 -37.9695 -37.9647
   -37.9569 -37.9502 -37.9487 -37.9443 -37.9407 -37.9343 -37.9312 -37.9181
   -37.9150 -37.8992 -37.8981 -37.8904 -37.8809 -37.8753 -37.8694 -37.8686
   -37.8672 -37.8644 -37.8605 -37.8550 -37.8477 -37.8463 -37.8450 -37.8418
   -37.8379 -37.8369 -37.8339 -37.8303 -37.8015 -37.8013 -37.7951 -37.7927
   -37.7876 -37.7852 -37.7749 -37.7745 -37.7535 -37.7503 -37.7459 -37.7418
   -37.6539 -37.6166 -37.6160 -37.6016 -37.5871 -37.5866 -37.5848 -37.5727
   -12.1545 -12.1529 -11.7908 -11.7816 -11.7633 -11.7595 -11.5223 -11.5103
   -11.3659 -11.3556 -11.2581 -11.2536 -11.2307 -11.2203 -11.1665 -11.1400
   -11.0162 -11.0050 -10.9476 -10.9342  -9.1284  -9.1273  -9.0683  -9.0680
    -8.7092  -2.8354  -2.8302  -2.7428  -2.7383  -2.6812  -2.6718  -2.6610
    -2.6469  -2.5379  -2.5352  -2.4220  -2.4184  -2.2616  -2.2512  -2.2015
    -2.1862  -2.1481  -2.1427  -2.0147  -1.9891  -1.9347  -1.9234  -1.8073
    -1.7289  -1.7068  -1.6070  -1.5616  -1.5448  -1.5157  -1.4762  -1.4297
    -1.4121  -1.3400  -1.3217  -1.3154  -1.2987  -1.2107  -1.1973  -1.1551
    -1.1491  -1.1278  -1.1120  -1.0134  -1.0087  -0.9539  -0.9349  -0.9003
    -0.8940  -0.8013  -0.7897  -0.7464  -0.7369  -0.7257  -0.7082  -0.6925
    -0.6293  -0.6271  -0.5582  -0.5358  -0.4879  -0.4479  -0.3319  -0.3195
     0.8717   0.8734   0.9276   0.9289   1.1718   1.1794   1.1894   1.1925
     1.2039   1.2069   1.2447   1.2476   1.4705   1.4779   1.7008   1.7130
     1.9755   1.9870   1.9901   2.0161   2.1078   2.1153   2.1356   2.1492
     2.2727   2.2762   2.4465   2.4496   2.4549   2.4706   2.5013   2.5036
     2.5410   2.5446   2.5575   2.5618   2.6637   2.6858   2.8020   2.8247
     2.8284   2.8398   2.8904   2.9044   3.0965   3.1009   3.1154   3.1216
     3.1669   3.1852   3.2679   3.2967   3.3934   3.3983   3.4425   3.4767
     3.4954   3.5016   3.5797   3.5862   3.6755   3.6849   3.7366   3.7500
     3.7937   3.8100   3.8510   3.8665   3.9166   3.9690   3.9797   4.0043
     4.0119   4.0166   4.0311   4.0577   4.0626   4.0959   4.1781   4.2070
     4.2145   4.2352   4.3065   4.3202   4.3552   4.3842   4.4003   4.4025
     4.4113   4.4347   4.4516   4.4552   4.4810   4.5125   4.5230   4.5410
     4.5460   4.5519   4.6795   4.6824   4.6901   4.7204   4.7273   4.7306
     4.7533   4.7783   4.8865   4.8891   5.0206   5.0655   5.0778   5.0836
     5.1196   5.1347   5.1385   5.1704   5.1892   5.2085   5.2216   5.2391
     5.2430   5.2710   5.3001   5.3732   5.4095   5.4279   5.4347   5.4406
     5.5019   5.5057   5.5287   5.5833   5.6126   5.6253   5.6302   5.6327
     5.6528   5.6810   5.6892   5.7254   5.7955   5.8139   5.8160   5.8198
     5.8280   5.8427   5.8627   5.8937   5.9086   5.9276   5.9493   5.9557
     5.9609   5.9746   5.9920   5.9961   6.0605   6.0700   6.0722   6.0966
     6.1182   6.1366   6.1434   6.2146   6.2332   6.2394   6.2586   6.2702
     6.2736   6.2783   6.2928   6.2997   6.3101   6.3177   6.4258   6.4335
     6.4372   6.4538   6.4578   6.4804   6.5100   6.5134   6.5173   6.5229
     6.5395   6.5411   6.5975   6.6031   6.6638   6.6968   6.7075   6.7170
     6.7539   6.7545   6.8185   6.8326   6.9364   6.9478   6.9639   7.0047

          k =-0.5000-0.2887 0.0000 (108310 PWs)   bands (ev):

   -66.9257 -66.9242 -66.9043 -66.9028 -66.8814 -66.8768 -66.8763 -66.8741
   -66.8722 -66.8713 -66.8665 -66.8647 -66.8610 -66.8599 -66.8593 -66.8570
   -66.8452 -66.8422 -66.8399 -66.8362 -66.8348 -66.8324 -66.8296 -66.8288
   -66.6802 -66.6799 -66.6671 -66.6662 -66.6372 -66.6365 -66.6324 -66.6302
   -66.6293 -66.6275 -66.6257 -66.6254 -66.5890 -66.5676 -66.5572 -66.5533
   -66.5526 -66.5443 -66.5098 -66.5013 -66.4984 -66.4960 -66.4955 -66.4941
   -38.7221 -38.7176 -38.6987 -38.6915 -38.5945 -38.5926 -38.5908 -38.5884
   -38.5694 -38.5662 -38.5627 -38.5624 -38.5278 -38.5268 -38.5032 -38.4973
   -38.4696 -38.4662 -38.4639 -38.4607 -38.4589 -38.4585 -38.4401 -38.4376
   -38.3936 -38.3914 -38.3846 -38.3846 -38.3740 -38.3726 -38.3584 -38.3567
   -38.3272 -38.3234 -38.2892 -38.2871 -38.2852 -38.2803 -38.2677 -38.2635
   -38.2599 -38.2587 -38.2564 -38.2505 -38.2413 -38.2369 -38.2210 -38.2203
   -38.2184 -38.2157 -38.2129 -38.2122 -38.2044 -38.2020 -38.2006 -38.1977
   -38.1952 -38.1842 -38.1798 -38.1796 -38.1767 -38.1745 -38.1508 -38.1473
   -38.1438 -38.1367 -38.1334 -38.1307 -38.1248 -38.1203 -38.1172 -38.1136
   -38.1080 -38.1055 -38.0949 -38.0930 -38.0797 -38.0762 -38.0698 -38.0692
   -38.0622 -38.0599 -38.0564 -38.0505 -38.0492 -38.0417 -38.0350 -38.0306
   -38.0254 -38.0167 -37.9853 -37.9815 -37.9799 -37.9726 -37.9701 -37.9661
   -37.9568 -37.9532 -37.9450 -37.9427 -37.9419 -37.9353 -37.9309 -37.9180
   -37.9143 -37.9027 -37.8957 -37.8879 -37.8780 -37.8772 -37.8703 -37.8676
   -37.8671 -37.8616 -37.8607 -37.8561 -37.8495 -37.8462 -37.8438 -37.8423
   -37.8382 -37.8352 -37.8345 -37.8323 -37.8024 -37.8018 -37.7945 -37.7924
   -37.7870 -37.7848 -37.7753 -37.7749 -37.7529 -37.7520 -37.7452 -37.7409
   -37.6523 -37.6203 -37.6158 -37.5976 -37.5945 -37.5914 -37.5752 -37.5727
   -12.1572 -12.1508 -11.7896 -11.7800 -11.7631 -11.7588 -11.5260 -11.5145
   -11.3669 -11.3625 -11.2578 -11.2504 -11.2281 -11.2066 -11.1560 -11.1484
   -11.0167 -11.0135 -10.9464 -10.9356  -9.1284  -9.1280  -9.0682  -9.0675
    -8.7091  -2.8406  -2.8376  -2.7391  -2.7299  -2.6756  -2.6673  -2.6617
    -2.6594  -2.5391  -2.5244  -2.4275  -2.4203  -2.2601  -2.2534  -2.2074
    -2.1976  -2.1556  -2.1399  -1.9990  -1.9954  -1.9280  -1.9076  -1.7778
    -1.7356  -1.7284  -1.5918  -1.5825  -1.5719  -1.5088  -1.4595  -1.4363
    -1.4038  -1.3382  -1.3244  -1.3162  -1.2735  -1.2198  -1.2096  -1.1627
    -1.1408  -1.1242  -1.1207  -1.0099  -1.0017  -0.9398  -0.9265  -0.9089
    -0.8854  -0.8051  -0.7881  -0.7699  -0.7401  -0.7386  -0.7067  -0.6767
    -0.6381  -0.6323  -0.5524  -0.5459  -0.4810  -0.4479  -0.3319  -0.3156
     0.8719   0.8731   0.9271   0.9289   1.1716   1.1757   1.1918   1.1934
     1.2021   1.2075   1.2451   1.2466   1.4638   1.4821   1.6950   1.7227
     1.9769   1.9891   2.0011   2.0030   2.1016   2.1193   2.1423   2.1541
     2.2739   2.2818   2.4434   2.4472   2.4518   2.4577   2.4956   2.5068
     2.5436   2.5467   2.5487   2.5538   2.6627   2.6722   2.8024   2.8197
     2.8344   2.8361   2.8995   2.9033   3.1008   3.1069   3.1153   3.1187
     3.1725   3.1786   3.2810   3.2930   3.3975   3.4032   3.4474   3.4675
     3.4985   3.5062   3.5859   3.5956   3.6680   3.6841   3.7280   3.7504
     3.8032   3.8087   3.8585   3.8712   3.9124   3.9655   3.9766   3.9869
     4.0121   4.0126   4.0423   4.0515   4.0808   4.0923   4.1892   4.2104
     4.2151   4.2207   4.3253   4.3288   4.3734   4.3771   4.3979   4.4017
     4.4168   4.4318   4.4394   4.4629   4.4755   4.5120   4.5181   4.5440
     4.5510   4.5740   4.6681   4.6739   4.6901   4.7186   4.7269   4.7337
     4.7449   4.7642   4.8766   4.9045   5.0235   5.0645   5.0727   5.0907
     5.1082   5.1236   5.1289   5.1520   5.1886   5.1976   5.2171   5.2236
     5.2579   5.2692   5.3161   5.4032   5.4211   5.4260   5.4313   5.4333
     5.4868   5.4991   5.5231   5.5847   5.6160   5.6253   5.6335   5.6493
     5.6590   5.6747   5.6906   5.7618   5.8014   5.8030   5.8145   5.8251
     5.8429   5.8587   5.8591   5.8685   5.9102   5.9226   5.9485   5.9560
     5.9617   5.9691   5.9926   6.0055   6.0439   6.0680   6.0818   6.0933
     6.1130   6.1362   6.1423   6.1677   6.2333   6.2451   6.2547   6.2628
     6.2704   6.2768   6.2893   6.3066   6.3116   6.3156   6.4270   6.4309
     6.4369   6.4533   6.4712   6.4794   6.5063   6.5124   6.5134   6.5198
     6.5333   6.5397   6.5984   6.6067   6.6863   6.6890   6.7008   6.7292
     6.7468   6.7495   6.8131   6.8183   6.9330   6.9360   6.9502   6.9634

          k =-0.2500 0.4330 0.0000 (108308 PWs)   bands (ev):

   -66.9282 -66.9170 -66.9151 -66.8938 -66.8849 -66.8791 -66.8757 -66.8735
   -66.8705 -66.8680 -66.8668 -66.8658 -66.8642 -66.8619 -66.8596 -66.8522
   -66.8471 -66.8410 -66.8394 -66.8375 -66.8341 -66.8333 -66.8304 -66.8277
   -66.6822 -66.6743 -66.6739 -66.6629 -66.6379 -66.6341 -66.6331 -66.6322
   -66.6285 -66.6277 -66.6267 -66.6242 -66.5891 -66.5642 -66.5628 -66.5524
   -66.5513 -66.5443 -66.5079 -66.5039 -66.4988 -66.4963 -66.4944 -66.4938
   -38.7232 -38.7123 -38.7069 -38.6873 -38.5972 -38.5926 -38.5901 -38.5822
   -38.5709 -38.5697 -38.5629 -38.5619 -38.5318 -38.5190 -38.5162 -38.4794
   -38.4761 -38.4692 -38.4666 -38.4617 -38.4547 -38.4496 -38.4459 -38.4405
   -38.3912 -38.3899 -38.3879 -38.3785 -38.3753 -38.3646 -38.3613 -38.3594
   -38.3547 -38.2936 -38.2908 -38.2903 -38.2878 -38.2751 -38.2744 -38.2652
   -38.2612 -38.2577 -38.2552 -38.2507 -38.2356 -38.2291 -38.2282 -38.2225
   -38.2214 -38.2161 -38.2157 -38.2118 -38.2065 -38.2026 -38.2014 -38.1941
   -38.1906 -38.1892 -38.1854 -38.1767 -38.1696 -38.1678 -38.1658 -38.1461
   -38.1386 -38.1350 -38.1331 -38.1321 -38.1248 -38.1224 -38.1194 -38.1121
   -38.1057 -38.1037 -38.0991 -38.0916 -38.0799 -38.0718 -38.0699 -38.0656
   -38.0620 -38.0601 -38.0589 -38.0538 -38.0496 -38.0472 -38.0326 -38.0279
   -38.0257 -38.0171 -37.9859 -37.9841 -37.9794 -37.9739 -37.9720 -37.9629
   -37.9572 -37.9521 -37.9472 -37.9392 -37.9368 -37.9329 -37.9293 -37.9268
   -37.9131 -37.8994 -37.8914 -37.8890 -37.8829 -37.8766 -37.8746 -37.8706
   -37.8640 -37.8616 -37.8607 -37.8577 -37.8489 -37.8473 -37.8454 -37.8404
   -37.8376 -37.8355 -37.8333 -37.8299 -37.8035 -37.8016 -37.7964 -37.7913
   -37.7893 -37.7804 -37.7795 -37.7718 -37.7537 -37.7507 -37.7457 -37.7412
   -37.6535 -37.6183 -37.6135 -37.6039 -37.5916 -37.5874 -37.5774 -37.5738
   -12.2108 -12.0001 -11.9941 -11.8006 -11.6605 -11.6560 -11.6375 -11.4433
   -11.3843 -11.3135 -11.3078 -11.3007 -11.2440 -11.2336 -11.1008 -11.0929
   -11.0331 -11.0217 -10.9841 -10.9097  -9.1425  -9.0962  -9.0952  -9.0580
    -8.7091  -2.8854  -2.7917  -2.7784  -2.7672  -2.6539  -2.6485  -2.6022
    -2.5706  -2.5155  -2.5125  -2.4844  -2.4749  -2.4347  -2.2570  -2.1263
    -2.1058  -2.0997  -2.0686  -2.0280  -2.0171  -1.9722  -1.9682  -1.8499
    -1.7905  -1.6571  -1.6217  -1.5672  -1.5260  -1.4857  -1.4649  -1.4120
    -1.3981  -1.3406  -1.2942  -1.2852  -1.2658  -1.2534  -1.2422  -1.2270
    -1.1806  -1.0697  -1.0621  -1.0250  -1.0177  -0.9917  -0.9449  -0.8403
    -0.8333  -0.8197  -0.7832  -0.7606  -0.7575  -0.7183  -0.7150  -0.7028
    -0.6914  -0.6080  -0.5974  -0.5370  -0.4449  -0.4162  -0.3909  -0.2799
     0.8417   0.9057   0.9070   0.9490   1.1417   1.1502   1.1864   1.1922
     1.1954   1.2528   1.2590   1.2596   1.4410   1.5558   1.5831   1.7630
     1.9160   2.0204   2.0353   2.0661   2.1251   2.1396   2.1436   2.1526
     2.2329   2.3056   2.3101   2.3732   2.4455   2.4484   2.4784   2.4863
     2.5265   2.5813   2.6472   2.6552   2.6602   2.7481   2.7533   2.8042
     2.8646   2.8800   2.8908   2.9144   2.9844   2.9914   3.0046   3.0922
     3.2354   3.3145   3.3590   3.3746   3.4055   3.4126   3.4277   3.5003
     3.5109   3.5211   3.5314   3.6170   3.6183   3.6295   3.7071   3.7734
     3.7798   3.8020   3.8201   3.8419   3.8646   3.9139   3.9333   3.9496
     4.0776   4.0983   4.1134   4.1275   4.1372   4.1441   4.1620   4.1846
     4.2100   4.2579   4.2824   4.3017   4.3160   4.3557   4.3657   4.3740
     4.4017   4.4257   4.4578   4.4605   4.4948   4.5042   4.5324   4.5411
     4.6192   4.6217   4.6474   4.6543   4.6618   4.6753   4.7160   4.7410
     4.7685   4.9063   4.9240   4.9346   4.9627   4.9718   4.9910   5.0020
     5.0441   5.0884   5.1007   5.1534   5.1898   5.2186   5.2434   5.2644
     5.2745   5.3303   5.3623   5.3839   5.4070   5.4189   5.4668   5.4989
     5.5109   5.5133   5.5317   5.5584   5.5802   5.5915   5.6111   5.6658
     5.6742   5.6993   5.7405   5.7923   5.7964   5.8029   5.8123   5.8351
     5.8485   5.8542   5.8605   5.8749   5.8982   5.9274   5.9293   5.9492
     5.9599   5.9681   5.9832   5.9944   6.0146   6.0381   6.0609   6.0970
     6.1194   6.1367   6.1517   6.1556   6.1715   6.2023   6.2120   6.2615
     6.2711   6.2810   6.3069   6.3229   6.3402   6.3674   6.3758   6.3904
     6.4187   6.4330   6.4451   6.4699   6.5268   6.5428   6.5564   6.5865
[...]
     6.5990   6.6052   6.6397   6.6442   6.6809   6.7138   6.7327   6.7418
     6.7521   6.7876   6.8049   6.8194   6.8281   6.8842   6.9381   6.9503

          k = 0.5000-0.0000 0.0000 (108308 PWs)   bands (ev):

   -66.9245 -66.9134 -66.9115 -66.8899 -66.8819 -66.8755 -66.8720 -66.8702
   -66.8672 -66.8652 -66.8635 -66.8625 -66.8605 -66.8585 -66.8562 -66.8489
   -66.8445 -66.8386 -66.8363 -66.8344 -66.8318 -66.8304 -66.8285 -66.8241
   -66.6800 -66.6721 -66.6718 -66.6611 -66.6346 -66.6307 -66.6297 -66.6285
   -66.6248 -66.6244 -66.6238 -66.6210 -66.5859 -66.5628 -66.5588 -66.5502
   -66.5476 -66.5442 -66.5055 -66.5008 -66.4972 -66.4935 -66.4925 -66.4905
   -38.7180 -38.7065 -38.7018 -38.6814 -38.5931 -38.5888 -38.5857 -38.5787
   -38.5683 -38.5661 -38.5604 -38.5592 -38.5286 -38.5165 -38.5135 -38.4777
   -38.4751 -38.4679 -38.4657 -38.4615 -38.4527 -38.4483 -38.4455 -38.4419
   -38.3881 -38.3873 -38.3864 -38.3800 -38.3726 -38.3649 -38.3631 -38.3609
   -38.3511 -38.2917 -38.2872 -38.2865 -38.2842 -38.2730 -38.2722 -38.2618
   -38.2581 -38.2559 -38.2515 -38.2476 -38.2331 -38.2258 -38.2248 -38.2210
   -38.2202 -38.2160 -38.2135 -38.2110 -38.2033 -38.2013 -38.2002 -38.1928
   -38.1874 -38.1861 -38.1827 -38.1733 -38.1668 -38.1651 -38.1625 -38.1436
   -38.1358 -38.1327 -38.1303 -38.1292 -38.1214 -38.1188 -38.1162 -38.1087
   -38.1026 -38.1007 -38.0952 -38.0919 -38.0768 -38.0692 -38.0669 -38.0623
   -38.0597 -38.0572 -38.0569 -38.0508 -38.0464 -38.0445 -38.0303 -38.0255
   -38.0222 -38.0154 -37.9827 -37.9809 -37.9763 -37.9702 -37.9693 -37.9597
   -37.9545 -37.9477 -37.9436 -37.9363 -37.9330 -37.9300 -37.9268 -37.9233
   -37.9096 -37.8965 -37.8881 -37.8858 -37.8798 -37.8738 -37.8718 -37.8675
   -37.8613 -37.8586 -37.8567 -37.8540 -37.8463 -37.8447 -37.8419 -37.8372
   -37.8342 -37.8323 -37.8305 -37.8275 -37.7988 -37.7977 -37.7923 -37.7875
   -37.7851 -37.7762 -37.7759 -37.7679 -37.7510 -37.7480 -37.7420 -37.7384
   -37.6542 -37.6166 -37.6117 -37.6010 -37.5911 -37.5841 -37.5747 -37.5700
   -12.2021 -11.9898 -11.9852 -11.8004 -11.6602 -11.6537 -11.6214 -11.4482
   -11.3767 -11.3183 -11.2995 -11.2926 -11.2348 -11.2250 -11.1117 -11.0918
   -11.0200 -11.0182 -10.9889 -10.9017  -9.1827  -9.1339  -9.1330  -9.0939
    -8.7479  -2.8799  -2.7830  -2.7727  -2.7590  -2.6459  -2.6404  -2.5932
    -2.5631  -2.5079  -2.5021  -2.4761  -2.4684  -2.4282  -2.2558  -2.1086
    -2.1058  -2.1006  -2.0556  -2.0209  -2.0167  -1.9727  -1.9631  -1.8641
    -1.7644  -1.6632  -1.6432  -1.5664  -1.5551  -1.4850  -1.4228  -1.4090
    -1.3400  -1.3052  -1.2949  -1.2778  -1.2604  -1.2572  -1.2423  -1.1798
    -1.0772  -1.0657  -1.0467  -1.0227  -1.0159  -1.0022  -0.9642  -0.9393
    -0.8454  -0.8290  -0.8137  -0.7728  -0.7561  -0.7271  -0.7163  -0.7049
    -0.6854  -0.6102  -0.5957  -0.5394  -0.4430  -0.4118  -0.3921  -0.2750
     0.8204   0.8765   0.8776   0.9152   1.1122   1.1152   1.1596   1.1632
     1.1641   1.2222   1.2281   1.2288   1.4241   1.5541   1.5762   1.7666
     1.9181   2.0237   2.0331   2.0617   2.1246   2.1361   2.1415   2.1505
     2.2342   2.3066   2.3147   2.3770   2.4514   2.4544   2.4848   2.4924
     2.5314   2.5867   2.6496   2.6572   2.6615   2.7474   2.7534   2.8032
     2.8649   2.8843   2.8930   2.9137   2.9858   2.9918   3.0059   3.0937
     3.2366   3.3140   3.3609   3.3753   3.4075   3.4190   3.4342   3.5022
     3.5145   3.5192   3.5331   3.6176   3.6211   3.6351   3.7110   3.7748
     3.7828   3.7978   3.8272   3.8432   3.8714   3.9177   3.9329   3.9554
     4.0757   4.1038   4.1152   4.1308   4.1426   4.1492   4.1675   4.1916
     4.2140   4.2508   4.2755   4.3060   4.3142   4.3592   4.3687   4.3754
     4.4037   4.4262   4.4538   4.4777   4.4935   4.5063   4.5320   4.5427
     4.6191   4.6255   4.6478   4.6541   4.6642   4.6843   4.7192   4.7391
     4.7686   4.9059   4.9259   4.9371   4.9643   4.9735   4.9921   5.0056
     5.0485   5.0913   5.1026   5.1566   5.1927   5.2253   5.2463   5.2666
     5.2780   5.3293   5.3657   5.3902   5.4098   5.4219   5.4740   5.5004
     5.5126   5.5147   5.5339   5.5585   5.5817   5.5909   5.6159   5.6653
     5.6753   5.7080   5.7476   5.7970   5.8032   5.8130   5.8189   5.8409
     5.8524   5.8612   5.8669   5.8785   5.8997   5.9361   5.9417   5.9498
     5.9596   5.9699   5.9877   6.0022   6.0209   6.0420   6.0656   6.0995
     6.1231   6.1413   6.1551   6.1585   6.1762   6.2059   6.2231   6.2640
     6.2728   6.2841   6.3107   6.3283   6.3461   6.3722   6.3813   6.3978
     6.4222   6.4403   6.4485   6.4739   6.5296   6.5444   6.5604   6.5908
     6.5991   6.6073   6.6398   6.6447   6.6802   6.7146   6.7322   6.7392
     6.7526   6.7841   6.8052   6.8204   6.8308   6.8846   6.9396   6.9514

     the Fermi energy is     5.2758 ev

!    total energy              =  -12616.46184847 Ry
     total all-electron energy =   -103594.965655 Ry
     estimated scf accuracy    <          9.7E-11 Ry
     smearing contrib. (-TS)   =       0.01079465 Ry
     internal energy E=F+TS    =  -12616.47264312 Ry

     The total energy is F=E-TS. E is the sum of the following terms:
     one-electron contribution =  -67468.89329293 Ry
     hartree contribution      =   33850.16613098 Ry
     xc contribution           =   -1216.11781691 Ry
     ewald contribution        =   25980.74036199 Ry
     DFT-D3 Dispersion         =      -1.08629145 Ry
     one-center paw contrib.   =   -3761.28173479 Ry

     convergence has been achieved in  37 iterations

     negative rho (up, down):  2.010E-04 0.000E+00

     Forces acting on atoms (cartesian axes, Ry/au):

     atom    1 type  1   force =     0.00007837   -0.00017300   -0.00009875
     atom    2 type  1   force =    -0.00012563    0.00026163   -0.00026615
     atom    3 type  1   force =     0.00012110   -0.00007287   -0.00004763
     atom    4 type  1   force =     0.00011740   -0.00021197    0.00005625
     atom    5 type  1   force =    -0.00004680    0.00004804   -0.00007792
     atom    6 type  1   force =    -0.00000201    0.00011092    0.00005473
     atom    7 type  2   force =     0.00014693   -0.00024304    0.00009045
     atom    8 type  2   force =     0.00023227   -0.00016312   -0.00030760
     atom    9 type  2   force =     0.00003870    0.00001823   -0.00044010
     atom   10 type  1   force =    -0.00010295   -0.00012860   -0.00009845
     atom   11 type  1   force =    -0.00013625    0.00000811   -0.00004266
     atom   12 type  1   force =    -0.00003515   -0.00002955    0.00006870
     atom   13 type  1   force =    -0.00013061    0.00017543    0.00032660
     atom   14 type  1   force =     0.00018274    0.00007709    0.00011218
     atom   15 type  1   force =    -0.00003258    0.00014613    0.00003260
     atom   16 type  2   force =    -0.00016563    0.00001663    0.00016915
     atom   17 type  2   force =    -0.00008685   -0.00003020   -0.00002905
     atom   18 type  2   force =    -0.00011098   -0.00006202    0.00016028
     atom   19 type  1   force =    -0.00004003    0.00006909   -0.00003762
     atom   20 type  1   force =     0.00018635    0.00006961    0.00001218
     atom   21 type  1   force =     0.00001973   -0.00010197    0.00002842
     atom   22 type  1   force =     0.00005793    0.00001837    0.00005271
     atom   23 type  1   force =    -0.00001948    0.00001116    0.00008475
     atom   24 type  1   force =     0.00001161   -0.00001295   -0.00010708
     atom   25 type  2   force =    -0.00006279   -0.00005458    0.00003042
     atom   26 type  2   force =    -0.00008711   -0.00000471   -0.00044840
     atom   27 type  2   force =     0.00000878   -0.00002266   -0.00047036
     atom   28 type  1   force =    -0.00020467   -0.00024893   -0.00022655
     atom   29 type  1   force =     0.00021363   -0.00010227    0.00042295
     atom   30 type  1   force =    -0.00006441    0.00007611    0.00002843
     atom   31 type  1   force =     0.00048982    0.00002455   -0.00012653
     atom   32 type  1   force =    -0.00023667   -0.00006204    0.00025880
     atom   33 type  1   force =     0.00005710   -0.00000358    0.00031920
     atom   34 type  2   force =     0.00017262    0.00001439    0.00033833
     atom   35 type  2   force =     0.00008003   -0.00019966    0.00051209
     atom   36 type  2   force =     0.00006723    0.00001497   -0.00007270
     atom   37 type  1   force =    -0.00025710   -0.00019407   -0.00013304
     atom   38 type  1   force =     0.00002652   -0.00041993   -0.00010740
     atom   39 type  1   force =     0.00000016   -0.00065378    0.00019825
     atom   40 type  1   force =     0.00000101   -0.00006620   -0.00005400
     atom   41 type  1   force =    -0.00012513   -0.00022321    0.00018423
     atom   42 type  1   force =    -0.00012577    0.00001440    0.00019638
     atom   43 type  2   force =     0.00001384    0.00009509    0.00011884
     atom   44 type  2   force =    -0.00031686    0.00002731   -0.00063726
     atom   45 type  2   force =     0.00001465   -0.00012226   -0.00066039
     atom   46 type  1   force =     0.00012257    0.00011305    0.00005163
     atom   47 type  1   force =    -0.00019039   -0.00020715   -0.00036125
     atom   48 type  1   force =     0.00010716    0.00011850   -0.00004266
     atom   49 type  1   force =    -0.00033111    0.00008054    0.00018633
     atom   50 type  1   force =    -0.00007801    0.00018951    0.00019086
     atom   51 type  1   force =     0.00017782   -0.00019632    0.00034596
     atom   52 type  2   force =    -0.00013298   -0.00011207    0.00013671
     atom   53 type  2   force =    -0.00001752    0.00001817   -0.00007687
     atom   54 type  2   force =    -0.00026866    0.00001139    0.00034049
     atom   55 type  1   force =     0.00004171   -0.00003061   -0.00022617
     atom   56 type  1   force =     0.00009263    0.00011122    0.00002935
     atom   57 type  1   force =    -0.00016780   -0.00002092   -0.00007313
     atom   58 type  1   force =    -0.00000260   -0.00002027    0.00009564
     atom   59 type  1   force =     0.00005559    0.00008050   -0.00003435
     atom   60 type  1   force =    -0.00008482    0.00018590   -0.00007927
     atom   61 type  2   force =     0.00003379   -0.00018794   -0.00007692
     atom   62 type  2   force =    -0.00001058   -0.00001643   -0.00037991
     atom   63 type  2   force =     0.00009108    0.00025627   -0.00012365
     atom   64 type  1   force =     0.00023953    0.00004986   -0.00012119
     atom   65 type  1   force =    -0.00006800    0.00019957   -0.00041128
     atom   66 type  1   force =     0.00024784    0.00039501   -0.00069585
     atom   67 type  1   force =     0.00001964   -0.00006453    0.00015602
     atom   68 type  1   force =    -0.00001007   -0.00009521    0.00046637
     atom   69 type  1   force =    -0.00024425    0.00001882    0.00028616
     atom   70 type  2   force =     0.00003712    0.00008316    0.00023871
     atom   71 type  2   force =     0.00013527   -0.00013874   -0.00008999
     atom   72 type  2   force =    -0.00010246   -0.00006959   -0.00006744
     atom   73 type  3   force =     0.00047444    0.00092825    0.00027435
     atom   74 type  4   force =    -0.00056439    0.00053751   -0.00014222
     atom   75 type  4   force =     0.00038485    0.00040009    0.00041284
     atom   76 type  4   force =     0.00005315   -0.00056815   -0.00033448
     atom   77 type  4   force =     0.00013641    0.00026053    0.00075793

     Total force =     0.003352     Total SCF correction =     0.000058
     Energy error            =      2.1E-05 Ry
     Gradient error          =      9.3E-04 Ry/Bohr

     bfgs converged in  10 scf cycles and   9 bfgs steps
     (criteria: energy <  1.0E-04 Ry, force <  1.0E-03 Ry/Bohr)

     End of BFGS Geometry Optimization

     Final energy             =  -12616.4618484650 Ry

     File ./Cr2N_CH4_R3.bfgs deleted, as requested
Begin final coordinates

ATOMIC_POSITIONS (angstrom)
Cr              -1.5897784045        2.7797189372        8.2353012204
Cr               3.1976123614        0.0158861148        8.2346269837
Cr               0.7878738217        1.3708469768        8.2328339371
Cr               1.6359872740        2.8406663982        6.1046153479
Cr              -0.7390193923        1.3098700485        6.1040043624
Cr               1.4988617596        0.0173226272        6.1034377037
N                0.0066926785        0.0186954906        5.0610780737
N                2.3834764136        1.3894790603        7.0901490331
N                0.0063054857        2.7616415937        7.0916192759
Cr              -1.6478729903        2.8702021628       12.5001911828
Cr               3.3085595916        0.0102169509       12.4983646045
Cr               0.7080196055        1.2279834217       12.4649590499
Cr               1.6035764548        2.7802397857       10.4326287150
Cr              -0.7846322709        1.3644590939       10.4173972879
Cr               1.5688390407        0.0039180365       10.4164929063
N                0.0079893722        0.0187306815        9.3084458194
N                2.3751925131        1.3847882226       11.5403894823
N                0.0088665446        2.7515388671       11.5450857664
Cr              -3.9649614367        6.8964522590        8.2307423060
Cr               0.8267859519        4.1325271702        8.2324113691
Cr              -1.5898215356        5.4795933512        8.2315766498
Cr              -0.7381431106        6.9546840494        6.1039633309
Cr              -3.1149563312        5.4224325463        6.1056818723
Cr              -0.8778727782        4.1322036705        6.1030598481
N               -2.3689917255        4.1323177658        5.0604382898
N                0.0077483349        5.5028496904        7.0915810501
N               -2.3678683340        6.8750515210        7.0896304755
Cr              -4.0087684524        6.9771575722       12.5071670726
Cr               0.8925557920        4.1216213581       12.5270944122
Cr              -1.6475285420        5.3932716261       12.5163610495
Cr              -0.7725466383        6.8873217416       10.4240385095
Cr              -3.1358911866        5.4822322476       10.4192612998
Cr              -0.7998134126        4.1332367570       10.4350245623
N               -2.3639097275        4.1286903952        9.3167497298
N                0.0170799127        5.4991523303       11.5699564297
N               -2.3649604180        6.8702665471       11.5428854342
Cr               3.1616955885        2.7850437294        8.2316973205
Cr               7.9505994164        0.0182299568        8.2312905733
Cr               5.5350189106        1.3675632308        8.2307245245
Cr               6.3878058974        2.8411812393        6.1037943635
Cr               4.0128601546        1.3088690397        6.1012902176
Cr               6.2490093864        0.0160177118        6.1062083849
N                4.7588105306        0.0161246750        5.0604259682
N                7.1334474842        1.3897380761        7.0900101956
N                4.7569692202        2.7611956770        7.0900906635
Cr               3.1203323542        2.8262298743       12.5326235019
Cr               8.0443840660        0.0182911993       12.5065566929
Cr               5.4895310361        1.2681319597       12.5162347169
Cr               6.3469526194        2.7776085976       10.4255158823
Cr               3.9769015311        1.3769466193       10.4341481588
Cr               6.3118458540        0.0277787850       10.4186918213
N                4.7533653229        0.0208554131        9.3162845763
N                7.1286474585        1.3892801012       11.5438959359
N                4.7504582726        2.7670155917       11.5746200005
Cr               0.7855044550        6.8946302154        8.2380092906
Cr               5.5732743715        4.1299985017        8.2374228304
Cr               3.1615178557        5.4794557306        8.2335711678
Cr               4.0125744246        6.9559294608        6.1040920260
Cr               1.6356836174        5.4249150938        6.1035589491
Cr               3.8750299060        4.1319363965        6.1025684036
N                2.3821925768        4.1334656293        5.0617552583
N                4.7570815602        5.5023312861        7.0909409800
N                2.3823216117        6.8730862907        7.0918030066
Cr               0.7128480458        7.0214679716       12.5049912727
Cr               5.7255128454        4.1314851785       12.5053452446
Cr               3.1453575134        5.4544874129       12.4519654950
Cr               3.9769016344        6.8905905160       10.4299646439
Cr               1.5929493349        5.4857759296       10.4251498525
Cr               3.9511857469        4.1233543236       10.4274988565
N                2.3834547682        4.1310386026        9.3220950141
N                4.7813501248        5.4939304758       11.5349388448
N                2.3640392671        6.8904147584       11.5330705144
C                1.9140503744        3.2551729095       15.0962826154
H                2.5922019751        3.8148325737       15.7494683308
H                1.2546915852        2.5832712415       15.6592950217
H                1.2698967936        4.0127143467       14.5872924563
H                2.5272462976        2.5663049185       14.4574947428
End final coordinates



     Writing all to output data dir ./Cr2N_CH4_R3.save/ :
     XML data file, charge density, pseudopotentials, collected wavefunctions
 
     init_run     :     18.28s CPU     19.39s WALL (       1 calls)
     electrons    :  14851.82s CPU  15259.39s WALL (      10 calls)
     update_pot   :     11.37s CPU     11.91s WALL (       9 calls)
     forces       :    100.67s CPU    104.37s WALL (      10 calls)
     force_dftd3  :      2.27s CPU      2.40s WALL (      10 calls)

     Called by init_run:
     wfcinit      :     13.99s CPU     14.68s WALL (       1 calls)
     potinit      :      1.04s CPU      1.19s WALL (       1 calls)
     hinit0       :      0.35s CPU      0.44s WALL (       1 calls)

     Called by electrons:
     c_bands      :  12213.69s CPU  12475.57s WALL (     379 calls)
     sum_band     :   2077.57s CPU   2152.84s WALL (     379 calls)
     v_of_rho     :    216.55s CPU    233.13s WALL (     383 calls)
     newd         :    163.86s CPU    211.39s WALL (     383 calls)
     PAW_pot      :    140.94s CPU    142.98s WALL (     392 calls)
     mix_rho      :     30.41s CPU     32.76s WALL (     379 calls)
     energy_dftd3 :      1.12s CPU      1.13s WALL (      10 calls)

     Called by c_bands:
     init_us_2    :    217.78s CPU    220.70s WALL (    2334 calls)
     cegterg      :  11389.81s CPU  11644.22s WALL (    1137 calls)

     Called by *egterg:
     cdiaghg      :    397.37s CPU    402.40s WALL (    3900 calls)
     h_psi        :   5609.98s CPU   5719.41s WALL (    3948 calls)
     s_psi        :   1311.13s CPU   1325.51s WALL (    3948 calls)
     g_psi        :     25.69s CPU     26.02s WALL (    2808 calls)

     Called by h_psi:
     h_psi:calbec :   1328.94s CPU   1343.53s WALL (    3948 calls)
     vloc_psi     :   2919.54s CPU   2967.74s WALL (    3948 calls)
                                        0.00s GPU  (    3948 calls)
     add_vuspsi   :   1316.98s CPU   1331.72s WALL (    3948 calls)

     General routines
     calbec       :   2022.06s CPU   2043.77s WALL (    5232 calls)
     fft          :    174.04s CPU    188.82s WALL (    5084 calls)
     ffts         :      2.17s CPU      2.48s WALL (     762 calls)
     fftw         :   2860.52s CPU   2905.67s WALL ( 2850430 calls)
     interpolate  :     12.44s CPU     13.87s WALL (     383 calls)
 
     Parallel routines
 
     PWSCF        :      4h10m CPU      4h17m WALL

 
   This run was terminated on:   9: 7:12  15May2026            

=------------------------------------------------------------------------------=
   JOB DONE.
=------------------------------------------------------------------------------=
