
     Program PWSCF v.7.5 starts on  4Jun2026 at  0:15:19 

     This program is part of the open-source Quantum ESPRESSO suite
     for quantum simulation of materials; please cite
         "P. Giannozzi et al., J. Phys.:Condens. Matter 21 395502 (2009);
         "P. Giannozzi et al., J. Phys.:Condens. Matter 29 465901 (2017);
         "P. Giannozzi et al., J. Chem. Phys. 152 154105 (2020);
          URL http://www.quantum-espresso.org", 
     in publications or presentations arising from this work. More details at
     http://www.quantum-espresso.org/quote

     Parallel version (MPI & OpenMP), running on      64 processor cores
     Number of MPI processes:                64
     Threads/MPI process:                     1

     MPI processes distributed on     1 nodes
     179675 MiB available memory on the printing compute node when the environment starts
 
     Reading input from generated_inputs/adsorcion/pw-CH4-H22_Rot90_bridge_.in
Warning: card &CELL ignored

     Current dimensions of program PWSCF are:
     Max number of different atomic species (ntypx) = 10
     Max number of k-points (npk) =  40000
     Max angular momentum in pseudopotentials (lmaxx) =  4
     file Cr.pbe-spn-kjpaw_psl.1.0.0.UPF: wavefunction(s)  3S 3P 3D renormalized
     file N.pbe-n-kjpaw_psl.1.0.0.UPF: wavefunction(s)  2S renormalized
     file C.pbe-n-kjpaw_psl.1.0.0.UPF: wavefunction(s)  2S 2P renormalized
     file H.pbe-kjpaw_psl.1.0.0.UPF: wavefunction(s)  1S renormalized
 
     K-points division:     npool     =       4
     R & G space division:  proc/nbgrp/npool/nimage =      16
     Subspace diagonalization in iterative solution of the eigenvalue problem:
     one sub-group per band group will be used
     scalapack distributed-memory algorithm (size of sub-group:  4*  4 procs)

 
     Parallelization info
     --------------------
     sticks:   dense  smooth     PW     G-vecs:    dense   smooth      PW
     Min        1166     388    102               281408    54158    7274
     Max        1167     389    103               281417    54165    7281
     Sum       18661    6217   1639              4502593   866593  116429
 
     Using Slab Decomposition
 


     bravais-lattice index     =            0
     lattice parameter (alat)  =      17.9576  a.u.
     unit-cell volume          =   10952.5767 (a.u.)^3
     number of atoms/cell      =           77
     number of atomic types    =            4
     number of electrons       =       800.00
     number of Kohn-Sham states=          480
     kinetic-energy cutoff     =      70.0000  Ry
     charge density cutoff     =     840.0000  Ry
     scf convergence threshold =      1.0E-08
     mixing beta               =       0.2000
     number of iterations used =            8  plain     mixing
     energy convergence thresh.=      1.0E-04
     force convergence thresh. =      1.0E-03
     Exchange-correlation= SLA  PW   PBX  PBC
                           (   1   4   3   4   0   0   0)
     nstep                     =          200


     celldm(1)=  17.957575  celldm(2)=   0.000000  celldm(3)=   0.000000
     celldm(4)=   0.000000  celldm(5)=   0.000000  celldm(6)=   0.000000

     crystal axes: (cart. coord. in units of alat)
               a(1) = (   1.000000   0.000000   0.000000 )  
               a(2) = (  -0.500000   0.866025   0.000000 )  
               a(3) = (   0.000000   0.000000   2.183951 )  

     reciprocal axes: (cart. coord. in units 2 pi/alat)
               b(1) = (  1.000000  0.577351  0.000000 )  
               b(2) = (  0.000000  1.154701  0.000000 )  
               b(3) = (  0.000000  0.000000  0.457886 )  


     PseudoPot. # 1 for Cr read from file:
     pseudo/Cr.pbe-spn-kjpaw_psl.1.0.0.UPF
     MD5 check sum: 198f1a2427a48552563eee314eba32ba
     Pseudo is Projector augmented-wave + core cor, Zval = 14.0
     Generated using &quot;atomic&quot; code by A. Dal Corso  v.6.3
     Shape of augmentation charge: PSQ
     Using radial grid of 1183 points,  6 beta functions with: 
                l(1) =   0
                l(2) =   0
                l(3) =   1
                l(4) =   1
                l(5) =   2
                l(6) =   2
     Q(r) pseudized with 0 coefficients 


     PseudoPot. # 2 for N  read from file:
     pseudo/N.pbe-n-kjpaw_psl.1.0.0.UPF
     MD5 check sum: 14c48229446f9f2d411169a3abcbc3fa
     Pseudo is Projector augmented-wave + core cor, Zval =  5.0
     Generated using &quot;atomic&quot; code by A. Dal Corso  v.6.3
     Shape of augmentation charge: PSQ
     Using radial grid of 1085 points,  4 beta functions with: 
                l(1) =   0
                l(2) =   0
                l(3) =   1
                l(4) =   1
     Q(r) pseudized with 0 coefficients 


     PseudoPot. # 3 for C  read from file:
     pseudo/C.pbe-n-kjpaw_psl.1.0.0.UPF
     MD5 check sum: 5f16ad9a65e90284d1d834d4ab3b0f7d
     Pseudo is Projector augmented-wave + core cor, Zval =  4.0
     Generated using &quot;atomic&quot; code by A. Dal Corso  v.6.3
     Shape of augmentation charge: PSQ
     Using radial grid of 1073 points,  4 beta functions with: 
                l(1) =   0
                l(2) =   0
                l(3) =   1
                l(4) =   1
     Q(r) pseudized with 0 coefficients 


     PseudoPot. # 4 for H  read from file:
     pseudo/H.pbe-kjpaw_psl.1.0.0.UPF
     MD5 check sum: d81a744832360e4a8af0b0b5b123bc2a
     Pseudo is Projector augmented-wave, Zval =  1.0
     Generated using &quot;atomic&quot; code by A. Dal Corso  v.6.3MaX
     Shape of augmentation charge: PSQ
     Using radial grid of  929 points,  2 beta functions with: 
                l(1) =   0
                l(2) =   0
     Q(r) pseudized with 0 coefficients 


     atomic species   valence    mass     pseudopotential
     Cr               14.00    51.99610     Cr( 1.00)
     N                 5.00    14.00670     N ( 1.00)
     C                 4.00    12.01100     C ( 1.00)
     H                 1.00     1.00800     H ( 1.00)

     No symmetry found



   Cartesian axes

     site n.     atom                  positions (alat units)
         1        Cr     tau(   1) = (  -0.1681591   0.2912601   0.8673998  )
         2        Cr     tau(   2) = (   0.3363182   0.0000000   0.8673998  )
         3        Cr     tau(   3) = (   0.0818405   0.1417518   0.8673993  )
         4        Cr     tau(   4) = (   0.1684970   0.2918454   0.6425759  )
         5        Cr     tau(   5) = (  -0.0815030   0.1411673   0.6425759  )
         6        Cr     tau(   6) = (   0.1630059   0.0000000   0.6425759  )
         7        N      tau(   7) = (   0.0000000   0.0000000   0.5261641  )
         8        N      tau(   8) = (   0.2500000   0.1443376   0.7485579  )
         9        N      tau(   9) = (   0.0000000   0.2886752   0.7485579  )
        10        Cr     tau(  10) = (  -0.1730001   0.2996450   1.3148727  )
        11        Cr     tau(  11) = (   0.3460003   0.0000000   1.3148727  )
        12        Cr     tau(  12) = (   0.0770029   0.1333729   1.3148745  )
        13        Cr     tau(  13) = (   0.1677092   0.2904808   1.0968932  )
        14        Cr     tau(  14) = (  -0.0822901   0.1425306   1.0968938  )
        15        Cr     tau(  15) = (   0.1645802   0.0000000   1.0968938  )
        16        N      tau(  16) = (   0.0000000   0.0000000   0.9808490  )
        17        N      tau(  17) = (   0.2500004   0.1443372   1.2145625  )
        18        N      tau(  18) = (  -0.0000005   0.2886753   1.2145625  )
        19        Cr     tau(  19) = (  -0.4181595   0.7242736   0.8673993  )
        20        Cr     tau(  20) = (   0.0863184   0.4330126   0.8674001  )
        21        Cr     tau(  21) = (  -0.1681593   0.5747652   0.8674001  )
        22        Cr     tau(  22) = (  -0.0815030   0.7248581   0.6425759  )
        23        Cr     tau(  23) = (  -0.3315030   0.5741800   0.6425759  )
        24        Cr     tau(  24) = (  -0.0869941   0.4330127   0.6425759  )
        25        N      tau(  25) = (  -0.2500000   0.4330127   0.5261641  )
        26        N      tau(  26) = (   0.0000000   0.5773503   0.7485581  )
        27        N      tau(  27) = (  -0.2500000   0.7216878   0.7485579  )
        28        Cr     tau(  28) = (  -0.4229971   0.7326525   1.3148745  )
        29        Cr     tau(  29) = (   0.0959968   0.4330121   1.3148749  )
        30        Cr     tau(  30) = (  -0.1729989   0.5663837   1.3148749  )
        31        Cr     tau(  31) = (  -0.0822898   0.7234940   1.0968932  )
        32        Cr     tau(  32) = (  -0.3322908   0.5755446   1.0968932  )
        33        Cr     tau(  33) = (  -0.0854193   0.4330133   1.0968932  )
        34        N      tau(  34) = (  -0.2500001   0.4330128   0.9808490  )
        35        N      tau(  35) = (   0.0000000   0.5773503   1.2145635  )
        36        N      tau(  36) = (  -0.2499996   0.7216882   1.2145625  )
        37        Cr     tau(  37) = (   0.3318407   0.2912602   0.8674001  )
        38        Cr     tau(  38) = (   0.8363191   0.0000000   0.8673993  )
        39        Cr     tau(  39) = (   0.5818409   0.1417524   0.8674001  )
        40        Cr     tau(  40) = (   0.6684970   0.2918454   0.6425759  )
        41        Cr     tau(  41) = (   0.4184970   0.1411673   0.6425759  )
        42        Cr     tau(  42) = (   0.6630059   0.0000000   0.6425759  )
        43        N      tau(  43) = (   0.5000000   0.0000000   0.5261641  )
        44        N      tau(  44) = (   0.7500000   0.1443376   0.7485579  )
        45        N      tau(  45) = (   0.5000000   0.2886751   0.7485581  )
        46        Cr     tau(  46) = (   0.3270011   0.2996417   1.3148749  )
        47        Cr     tau(  47) = (   0.8459942   0.0000000   1.3148745  )
        48        Cr     tau(  48) = (   0.5770021   0.1333704   1.3148749  )
        49        Cr     tau(  49) = (   0.6677091   0.2904819   1.0968932  )
        50        Cr     tau(  50) = (   0.4177102   0.1425314   1.0968932  )
        51        Cr     tau(  51) = (   0.6645817   0.0000000   1.0968932  )
        52        N      tau(  52) = (   0.5000001   0.0000000   0.9808490  )
        53        N      tau(  53) = (   0.7500001   0.1443381   1.2145625  )
        54        N      tau(  54) = (   0.5000000   0.2886751   1.2145635  )
        55        Cr     tau(  55) = (   0.0818409   0.7242730   0.8674001  )
        56        Cr     tau(  56) = (   0.5863184   0.4330128   0.8674001  )
        57        Cr     tau(  57) = (   0.3318409   0.5747653   0.8673998  )
        58        Cr     tau(  58) = (   0.4184970   0.7248581   0.6425759  )
        59        Cr     tau(  59) = (   0.1684970   0.5741800   0.6425759  )
        60        Cr     tau(  60) = (   0.4130059   0.4330127   0.6425759  )
        61        N      tau(  61) = (   0.2500000   0.4330127   0.5261641  )
        62        N      tau(  62) = (   0.5000000   0.5773502   0.7485579  )
        63        N      tau(  63) = (   0.2500000   0.7216878   0.7485579  )
        64        Cr     tau(  64) = (   0.0770021   0.7326550   1.3148749  )
        65        Cr     tau(  65) = (   0.5959968   0.4330133   1.3148749  )
        66        Cr     tau(  66) = (   0.3269999   0.5663804   1.3148727  )
        67        Cr     tau(  67) = (   0.4177099   0.7234948   1.0968938  )
        68        Cr     tau(  68) = (   0.1677091   0.5755435   1.0968932  )
        69        Cr     tau(  69) = (   0.4145807   0.4330121   1.0968932  )
        70        N      tau(  70) = (   0.2499999   0.4330126   0.9808490  )
        71        N      tau(  71) = (   0.4999995   0.5773501   1.2145625  )
        72        N      tau(  72) = (   0.2500001   0.7216873   1.2145625  )
        73        C      tau(  73) = (   0.2114989   0.3663269   1.5915635  )
        74        H      tau(  74) = (   0.1452759   0.4325499   1.6577865  )
        75        H      tau(  75) = (   0.2777220   0.3001039   1.6577865  )
        76        H      tau(  76) = (   0.1452759   0.3001039   1.5253405  )
        77        H      tau(  77) = (   0.2777220   0.4325499   1.5253405  )

     --------------------------------------------
     DFT-D3 Dispersion Correction (3-body terms):
     --------------------------------------------
       Reference C6 values for interpolation: 

         atom   Coordination number   C6
         H          0.912             6.05
         H          0.000            15.18
         C          0.000            98.23
         C          0.987            86.49
         C          1.998            58.72
         C          2.999            51.56
         C          3.984            36.41
         N          0.000            50.54
         N          0.994            44.25
         N          2.014            39.35
         N          2.990            31.16
         Cr         0.000          1381.48
         Cr         1.827           571.38
         Cr        10.619           306.69

       Values used:

         atom   Coordination number  R0_AB[au]  C6      C8
         Cr        12.627            3.252    306.69  28303.74
         Cr        12.627            3.252    306.69  28303.74
         Cr        12.627            3.252    306.69  28303.74
         Cr        10.143            3.252    306.69  28303.74
         Cr        10.143            3.252    306.69  28303.74
         Cr        10.143            3.252    306.69  28303.74
         N          3.022            2.478     31.29    690.36
         N          6.023            2.478     31.16    687.49
         N          6.023            2.478     31.16    687.49
         Cr         9.072            3.252    306.69  28303.74
         Cr         9.072            3.252    306.69  28303.74
         Cr         9.087            3.252    306.69  28303.74
         Cr        12.748            3.252    306.69  28303.74
         Cr        12.748            3.252    306.69  28303.74
         Cr        12.748            3.252    306.69  28303.74
         N          6.047            2.478     31.16    687.49
         N          6.032            2.478     31.16    687.49
         N          6.032            2.478     31.16    687.49
         Cr        12.627            3.252    306.69  28303.74
         Cr        12.627            3.252    306.69  28303.74
         Cr        12.627            3.252    306.69  28303.74
         Cr        10.143            3.252    306.69  28303.74
         Cr        10.143            3.252    306.69  28303.74
         Cr        10.143            3.252    306.69  28303.74
         N          3.022            2.478     31.29    690.36
         N          6.023            2.478     31.16    687.49
         N          6.023            2.478     31.16    687.49
         Cr         9.071            3.252    306.69  28303.74
         Cr         9.191            3.252    306.69  28303.74
         Cr         9.071            3.252    306.69  28303.74
         Cr        12.748            3.252    306.69  28303.74
         Cr        12.748            3.252    306.69  28303.74
         Cr        12.748            3.252    306.69  28303.74
         N          6.047            2.478     31.16    687.49
         N          6.032            2.478     31.16    687.49
         N          6.032            2.478     31.16    687.49
         Cr        12.627            3.252    306.69  28303.74
         Cr        12.627            3.252    306.69  28303.74
         Cr        12.627            3.252    306.69  28303.74
         Cr        10.143            3.252    306.69  28303.74
         Cr        10.143            3.252    306.69  28303.74
         Cr        10.143            3.252    306.69  28303.74
         N          3.022            2.478     31.29    690.36
         N          6.023            2.478     31.16    687.49
         N          6.023            2.478     31.16    687.49
         Cr         9.191            3.252    306.69  28303.74
         Cr         9.071            3.252    306.69  28303.74
         Cr         9.071            3.252    306.69  28303.74
         Cr        12.748            3.252    306.69  28303.74
         Cr        12.748            3.252    306.69  28303.74
         Cr        12.748            3.252    306.69  28303.74
         N          6.047            2.478     31.16    687.49
         N          6.032            2.478     31.16    687.49
         N          6.032            2.478     31.16    687.49
         Cr        12.627            3.252    306.69  28303.74
         Cr        12.627            3.252    306.69  28303.74
         Cr        12.627            3.252    306.69  28303.74
         Cr        10.143            3.252    306.69  28303.74
         Cr        10.143            3.252    306.69  28303.74
         Cr        10.143            3.252    306.69  28303.74
         N          3.022            2.478     31.29    690.36
         N          6.023            2.478     31.16    687.49
         N          6.023            2.478     31.16    687.49
         Cr         9.072            3.252    306.69  28303.74
         Cr         9.072            3.252    306.69  28303.74
         Cr         9.113            3.252    306.69  28303.74
         Cr        12.748            3.252    306.69  28303.74
         Cr        12.748            3.252    306.69  28303.74
         Cr        12.748            3.252    306.69  28303.74
         N          6.047            2.478     31.16    687.49
         N          6.032            2.478     31.16    687.49
         N          6.032            2.478     31.16    687.49
         C          4.153            2.750     36.49   1055.22
         H          0.998            2.062      6.18     74.75
         H          0.998            2.062      6.18     74.75
         H          1.051            2.062      6.14     74.25
         H          1.070            2.062      6.13     74.11

         Molecular C6 ( Ry / a.u.^6 ) =    974451.64


     number of k points=    10  Methfessel-Paxton smearing, width (Ry)=  0.0200
                       cart. coord. in units 2pi/alat
        k(    1) = (   0.0000000   0.0000000   0.0000000), wk =   0.1250000
        k(    2) = (   0.0000000   0.2886753   0.0000000), wk =   0.2500000
        k(    3) = (   0.0000000  -0.5773505   0.0000000), wk =   0.1250000
        k(    4) = (   0.2500000   0.4330129   0.0000000), wk =   0.2500000
        k(    5) = (  -0.2500000   0.1443376   0.0000000), wk =   0.2500000
        k(    6) = (   0.2500000   0.1443376   0.0000000), wk =   0.2500000
        k(    7) = (   0.5000000  -0.2886753   0.0000000), wk =   0.1250000
        k(    8) = (  -0.5000000  -0.2886753   0.0000000), wk =   0.1250000
        k(    9) = (  -0.2500000   0.4330129   0.0000000), wk =   0.2500000
        k(   10) = (   0.5000000  -0.0000000   0.0000000), wk =   0.2500000

     Dense  grid:  4502593 G-vectors     FFT dimensions: ( 180, 180, 375)

     Smooth grid:   866593 G-vectors     FFT dimensions: (  96,  96, 216)

     Estimated max dynamical RAM per process >     867.27 MB

     Estimated total dynamical RAM >      50.98 GB

     Initial potential from superposition of free atoms

     starting charge     799.9627, renormalised to     800.0000

     negative rho (up, down):  3.833E-04 0.000E+00
     Starting wfcs are  584 randomized atomic wfcs
     Checking if some PAW data can be deallocated... 

     total cpu time spent up to now is       19.8 secs

     Self-consistent Calculation

     iteration #  1     ecut=    70.00 Ry     beta= 0.20
     Davidson diagonalization with overlap
     ethr =  1.00E-02,  avg # of iterations =  2.7

     negative rho (up, down):  1.515E-04 0.000E+00

     total cpu time spent up to now is       66.2 secs

     total energy              =  -12610.59153797 Ry
     estimated scf accuracy    <      29.30386531 Ry

     iteration #  2     ecut=    70.00 Ry     beta= 0.20
     Davidson diagonalization with overlap
     ethr =  3.66E-03,  avg # of iterations =  6.3

     negative rho (up, down):  4.570E-04 0.000E+00

     total cpu time spent up to now is      123.3 secs

     total energy              =  -12600.07096105 Ry
     estimated scf accuracy    <     682.48932951 Ry

     iteration #  3     ecut=    70.00 Ry     beta= 0.20
     Davidson diagonalization with overlap
     ethr =  3.66E-03,  avg # of iterations =  3.0

     negative rho (up, down):  6.652E-04 0.000E+00

     total cpu time spent up to now is      165.5 secs

     total energy              =  -12608.74159513 Ry
     estimated scf accuracy    <     497.17425307 Ry

     iteration #  4     ecut=    70.00 Ry     beta= 0.20
     Davidson diagonalization with overlap
     ethr =  3.66E-03,  avg # of iterations =  2.0

     negative rho (up, down):  3.062E-04 0.000E+00

     total cpu time spent up to now is      206.6 secs

     total energy              =  -12614.95962129 Ry
     estimated scf accuracy    <      82.23475263 Ry

     iteration #  5     ecut=    70.00 Ry     beta= 0.20
     Davidson diagonalization with overlap
     ethr =  3.66E-03,  avg # of iterations =  1.3

     negative rho (up, down):  3.975E-04 0.000E+00

     total cpu time spent up to now is      244.3 secs

     total energy              =  -12615.65622116 Ry
     estimated scf accuracy    <      12.05035544 Ry

     iteration #  6     ecut=    70.00 Ry     beta= 0.20
     Davidson diagonalization with overlap
     ethr =  1.51E-03,  avg # of iterations =  2.0

     negative rho (up, down):  4.658E-04 0.000E+00

     total cpu time spent up to now is      285.2 secs

     total energy              =  -12616.17268780 Ry
     estimated scf accuracy    <       3.78151486 Ry

     iteration #  7     ecut=    70.00 Ry     beta= 0.20
     Davidson diagonalization with overlap
     c_bands:  1 eigenvalues not converged
     ethr =  4.73E-04,  avg # of iterations = 12.7

     negative rho (up, down):  4.756E-04 0.000E+00

     total cpu time spent up to now is      337.1 secs

     total energy              =  -12616.33135546 Ry
     estimated scf accuracy    <       2.04155246 Ry

     iteration #  8     ecut=    70.00 Ry     beta= 0.20
     Davidson diagonalization with overlap
     ethr =  2.55E-04,  avg # of iterations =  2.0

     negative rho (up, down):  4.948E-04 0.000E+00

     total cpu time spent up to now is      378.2 secs

     total energy              =  -12616.35600316 Ry
     estimated scf accuracy    <       0.84901079 Ry

     iteration #  9     ecut=    70.00 Ry     beta= 0.20
     Davidson diagonalization with overlap
     ethr =  1.06E-04,  avg # of iterations =  8.9

     negative rho (up, down):  3.932E-04 0.000E+00

     total cpu time spent up to now is      427.5 secs

     total energy              =  -12616.35487245 Ry
     estimated scf accuracy    <       0.66510498 Ry

     iteration # 10     ecut=    70.00 Ry     beta= 0.20
     Davidson diagonalization with overlap
     ethr =  8.31E-05,  avg # of iterations =  3.2

     negative rho (up, down):  3.635E-04 0.000E+00

     total cpu time spent up to now is      470.0 secs

     total energy              =  -12616.35357606 Ry
     estimated scf accuracy    <       0.45031767 Ry

     iteration # 11     ecut=    70.00 Ry     beta= 0.20
     Davidson diagonalization with overlap
     ethr =  5.63E-05,  avg # of iterations =  8.0

     negative rho (up, down):  3.852E-04 0.000E+00

     total cpu time spent up to now is      525.9 secs

     total energy              =  -12616.36551996 Ry
     estimated scf accuracy    <       0.24747307 Ry

     iteration # 12     ecut=    70.00 Ry     beta= 0.20
     Davidson diagonalization with overlap
     ethr =  3.09E-05,  avg # of iterations = 11.8

     negative rho (up, down):  2.776E-04 0.000E+00

     total cpu time spent up to now is      580.2 secs

     total energy              =  -12616.35984636 Ry
     estimated scf accuracy    <       0.53187993 Ry

     iteration # 13     ecut=    70.00 Ry     beta= 0.20
     Davidson diagonalization with overlap
     ethr =  3.09E-05,  avg # of iterations =  1.3

     negative rho (up, down):  2.417E-04 0.000E+00

     total cpu time spent up to now is      618.3 secs

     total energy              =  -12616.36756179 Ry
     estimated scf accuracy    <       0.13713523 Ry

     iteration # 14     ecut=    70.00 Ry     beta= 0.20
     Davidson diagonalization with overlap
     ethr =  1.71E-05,  avg # of iterations =  2.8

     negative rho (up, down):  2.120E-04 0.000E+00

     total cpu time spent up to now is      660.3 secs

     total energy              =  -12616.36883086 Ry
     estimated scf accuracy    <       0.09389147 Ry

     iteration # 15     ecut=    70.00 Ry     beta= 0.20
     Davidson diagonalization with overlap
     ethr =  1.17E-05,  avg # of iterations =  3.0

     negative rho (up, down):  1.949E-04 0.000E+00

     total cpu time spent up to now is      702.3 secs

     total energy              =  -12616.36882604 Ry
     estimated scf accuracy    <       0.18969438 Ry

     iteration # 16     ecut=    70.00 Ry     beta= 0.20
     Davidson diagonalization with overlap
     ethr =  1.17E-05,  avg # of iterations =  1.3

     negative rho (up, down):  1.947E-04 0.000E+00

     total cpu time spent up to now is      740.2 secs

     total energy              =  -12616.37077471 Ry
     estimated scf accuracy    <       0.03677650 Ry

     iteration # 17     ecut=    70.00 Ry     beta= 0.20
     Davidson diagonalization with overlap
     ethr =  4.60E-06,  avg # of iterations =  9.7

     negative rho (up, down):  1.965E-04 0.000E+00

     total cpu time spent up to now is      790.9 secs

     total energy              =  -12616.37055965 Ry
     estimated scf accuracy    <       0.05090110 Ry

     iteration # 18     ecut=    70.00 Ry     beta= 0.20
     Davidson diagonalization with overlap
     ethr =  4.60E-06,  avg # of iterations =  2.9

     negative rho (up, down):  1.977E-04 0.000E+00

     total cpu time spent up to now is      829.9 secs

     total energy              =  -12616.37128269 Ry
     estimated scf accuracy    <       0.04679084 Ry

     iteration # 19     ecut=    70.00 Ry     beta= 0.20
     Davidson diagonalization with overlap
     ethr =  4.60E-06,  avg # of iterations =  1.1

     negative rho (up, down):  2.000E-04 0.000E+00

     total cpu time spent up to now is      866.8 secs

     total energy              =  -12616.37240306 Ry
     estimated scf accuracy    <       0.00816038 Ry

     iteration # 20     ecut=    70.00 Ry     beta= 0.20
     Davidson diagonalization with overlap
     ethr =  1.02E-06,  avg # of iterations =  1.8

     negative rho (up, down):  2.020E-04 0.000E+00

     total cpu time spent up to now is      907.2 secs

     total energy              =  -12616.37259424 Ry
     estimated scf accuracy    <       0.00298348 Ry

     iteration # 21     ecut=    70.00 Ry     beta= 0.20
     Davidson diagonalization with overlap
     ethr =  3.73E-07,  avg # of iterations =  2.9

     negative rho (up, down):  2.061E-04 0.000E+00

     total cpu time spent up to now is      949.1 secs

     total energy              =  -12616.37266061 Ry
     estimated scf accuracy    <       0.00480780 Ry

     iteration # 22     ecut=    70.00 Ry     beta= 0.20
     Davidson diagonalization with overlap
     ethr =  3.73E-07,  avg # of iterations =  1.8

     negative rho (up, down):  2.104E-04 0.000E+00

     total cpu time spent up to now is      989.4 secs

     total energy              =  -12616.37279596 Ry
     estimated scf accuracy    <       0.00334286 Ry

     iteration # 23     ecut=    70.00 Ry     beta= 0.20
     Davidson diagonalization with overlap
     ethr =  3.73E-07,  avg # of iterations =  1.0

     negative rho (up, down):  2.128E-04 0.000E+00

     total cpu time spent up to now is     1025.6 secs

     total energy              =  -12616.37288595 Ry
     estimated scf accuracy    <       0.00143784 Ry

     iteration # 24     ecut=    70.00 Ry     beta= 0.20
     Davidson diagonalization with overlap
     ethr =  1.80E-07,  avg # of iterations =  1.8

     negative rho (up, down):  2.128E-04 0.000E+00

     total cpu time spent up to now is     1065.9 secs

     total energy              =  -12616.37291486 Ry
     estimated scf accuracy    <       0.00105537 Ry

     iteration # 25     ecut=    70.00 Ry     beta= 0.20
     Davidson diagonalization with overlap
     ethr =  1.32E-07,  avg # of iterations =  1.5

     negative rho (up, down):  2.125E-04 0.000E+00

     total cpu time spent up to now is     1105.3 secs

     total energy              =  -12616.37292632 Ry
     estimated scf accuracy    <       0.00098812 Ry

     iteration # 26     ecut=    70.00 Ry     beta= 0.20
     Davidson diagonalization with overlap
     ethr =  1.24E-07,  avg # of iterations =  1.8

     negative rho (up, down):  2.135E-04 0.000E+00

     total cpu time spent up to now is     1145.4 secs

     total energy              =  -12616.37293189 Ry
     estimated scf accuracy    <       0.00207235 Ry

     iteration # 27     ecut=    70.00 Ry     beta= 0.20
     Davidson diagonalization with overlap
     ethr =  1.24E-07,  avg # of iterations =  1.0

     negative rho (up, down):  2.136E-04 0.000E+00

     total cpu time spent up to now is     1181.5 secs

     total energy              =  -12616.37296599 Ry
     estimated scf accuracy    <       0.00010656 Ry

     iteration # 28     ecut=    70.00 Ry     beta= 0.20
     Davidson diagonalization with overlap
     ethr =  1.33E-08,  avg # of iterations =  6.0

     negative rho (up, down):  2.125E-04 0.000E+00

     total cpu time spent up to now is     1225.8 secs

     total energy              =  -12616.37296312 Ry
     estimated scf accuracy    <       0.00048349 Ry

     iteration # 29     ecut=    70.00 Ry     beta= 0.20
     Davidson diagonalization with overlap
     ethr =  1.33E-08,  avg # of iterations =  2.0

     negative rho (up, down):  2.128E-04 0.000E+00

     total cpu time spent up to now is     1266.9 secs

     total energy              =  -12616.37296719 Ry
     estimated scf accuracy    <       0.00026620 Ry

     iteration # 30     ecut=    70.00 Ry     beta= 0.20
     Davidson diagonalization with overlap
     ethr =  1.33E-08,  avg # of iterations =  1.2

     negative rho (up, down):  2.126E-04 0.000E+00

     total cpu time spent up to now is     1305.2 secs

     total energy              =  -12616.37297395 Ry
     estimated scf accuracy    <       0.00003139 Ry

     iteration # 31     ecut=    70.00 Ry     beta= 0.20
     Davidson diagonalization with overlap
     ethr =  3.92E-09,  avg # of iterations =  5.1

     negative rho (up, down):  2.122E-04 0.000E+00

     total cpu time spent up to now is     1348.5 secs

     total energy              =  -12616.37297276 Ry
     estimated scf accuracy    <       0.00007482 Ry

     iteration # 32     ecut=    70.00 Ry     beta= 0.20
     Davidson diagonalization with overlap
     ethr =  3.92E-09,  avg # of iterations =  1.3

     negative rho (up, down):  2.120E-04 0.000E+00

     total cpu time spent up to now is     1387.2 secs

     total energy              =  -12616.37297370 Ry
     estimated scf accuracy    <       0.00002667 Ry

     iteration # 33     ecut=    70.00 Ry     beta= 0.20
     Davidson diagonalization with overlap
     ethr =  3.33E-09,  avg # of iterations =  1.8

     negative rho (up, down):  2.117E-04 0.000E+00

     total cpu time spent up to now is     1428.5 secs

     total energy              =  -12616.37297346 Ry
     estimated scf accuracy    <       0.00000963 Ry

     iteration # 34     ecut=    70.00 Ry     beta= 0.20
     Davidson diagonalization with overlap
     ethr =  1.20E-09,  avg # of iterations =  3.0

     negative rho (up, down):  2.111E-04 0.000E+00

     total cpu time spent up to now is     1471.0 secs

     total energy              =  -12616.37297191 Ry
     estimated scf accuracy    <       0.00003724 Ry

     iteration # 35     ecut=    70.00 Ry     beta= 0.20
     Davidson diagonalization with overlap
     ethr =  1.20E-09,  avg # of iterations =  1.9

     negative rho (up, down):  2.108E-04 0.000E+00

     total cpu time spent up to now is     1511.5 secs

     total energy              =  -12616.37297197 Ry
     estimated scf accuracy    <       0.00002338 Ry

     iteration # 36     ecut=    70.00 Ry     beta= 0.20
     Davidson diagonalization with overlap
     ethr =  1.20E-09,  avg # of iterations =  1.2

     negative rho (up, down):  2.111E-04 0.000E+00

     total cpu time spent up to now is     1548.8 secs

     total energy              =  -12616.37297243 Ry
     estimated scf accuracy    <       0.00000870 Ry

     iteration # 37     ecut=    70.00 Ry     beta= 0.20
     Davidson diagonalization with overlap
     ethr =  1.09E-09,  avg # of iterations =  1.0

     negative rho (up, down):  2.109E-04 0.000E+00

     total cpu time spent up to now is     1585.0 secs

     total energy              =  -12616.37297222 Ry
     estimated scf accuracy    <       0.00003054 Ry

     iteration # 38     ecut=    70.00 Ry     beta= 0.20
     Davidson diagonalization with overlap
     ethr =  1.09E-09,  avg # of iterations =  1.0

     negative rho (up, down):  2.107E-04 0.000E+00

     total cpu time spent up to now is     1621.1 secs

     total energy              =  -12616.37297239 Ry
     estimated scf accuracy    <       0.00000552 Ry

     iteration # 39     ecut=    70.00 Ry     beta= 0.20
     Davidson diagonalization with overlap
     ethr =  6.90E-10,  avg # of iterations =  1.0

     negative rho (up, down):  2.107E-04 0.000E+00

     total cpu time spent up to now is     1657.3 secs

     total energy              =  -12616.37297246 Ry
     estimated scf accuracy    <       0.00000138 Ry

     iteration # 40     ecut=    70.00 Ry     beta= 0.20
     Davidson diagonalization with overlap
     ethr =  1.72E-10,  avg # of iterations =  2.0

     negative rho (up, down):  2.106E-04 0.000E+00

     total cpu time spent up to now is     1698.5 secs

     total energy              =  -12616.37297238 Ry
     estimated scf accuracy    <       0.00000488 Ry

     iteration # 41     ecut=    70.00 Ry     beta= 0.20
     Davidson diagonalization with overlap
     ethr =  1.72E-10,  avg # of iterations =  1.4

     negative rho (up, down):  2.105E-04 0.000E+00

     total cpu time spent up to now is     1737.9 secs

     total energy              =  -12616.37297239 Ry
     estimated scf accuracy    <       0.00000329 Ry

     iteration # 42     ecut=    70.00 Ry     beta= 0.20
     Davidson diagonalization with overlap
     ethr =  1.72E-10,  avg # of iterations =  1.4

     negative rho (up, down):  2.104E-04 0.000E+00

     total cpu time spent up to now is     1777.1 secs

     total energy              =  -12616.37297245 Ry
     estimated scf accuracy    <       0.00000081 Ry

     iteration # 43     ecut=    70.00 Ry     beta= 0.20
     Davidson diagonalization with overlap
     ethr =  1.01E-10,  avg # of iterations =  1.0

     negative rho (up, down):  2.104E-04 0.000E+00

     total cpu time spent up to now is     1813.0 secs

     total energy              =  -12616.37297247 Ry
     estimated scf accuracy    <       0.00000016 Ry

     iteration # 44     ecut=    70.00 Ry     beta= 0.20
     Davidson diagonalization with overlap
     ethr =  2.04E-11,  avg # of iterations =  6.0

     negative rho (up, down):  2.103E-04 0.000E+00

     total cpu time spent up to now is     1856.9 secs

     total energy              =  -12616.37297247 Ry
     estimated scf accuracy    <       0.00000015 Ry

     iteration # 45     ecut=    70.00 Ry     beta= 0.20
     Davidson diagonalization with overlap
     ethr =  1.90E-11,  avg # of iterations =  1.9

     negative rho (up, down):  2.103E-04 0.000E+00

     total cpu time spent up to now is     1897.8 secs

     total energy              =  -12616.37297246 Ry
     estimated scf accuracy    <       0.00000030 Ry

     iteration # 46     ecut=    70.00 Ry     beta= 0.20
     Davidson diagonalization with overlap
     ethr =  1.90E-11,  avg # of iterations =  1.2

     negative rho (up, down):  2.103E-04 0.000E+00

     total cpu time spent up to now is     1935.6 secs

     total energy              =  -12616.37297247 Ry
     estimated scf accuracy    <       0.00000009 Ry

     iteration # 47     ecut=    70.00 Ry     beta= 0.20
     Davidson diagonalization with overlap
     ethr =  1.06E-11,  avg # of iterations =  1.7

     negative rho (up, down):  2.103E-04 0.000E+00

     total cpu time spent up to now is     1975.8 secs

     total energy              =  -12616.37297247 Ry
     estimated scf accuracy    <       0.00000008 Ry

     iteration # 48     ecut=    70.00 Ry     beta= 0.20
     Davidson diagonalization with overlap
     ethr =  1.02E-11,  avg # of iterations =  1.1

     negative rho (up, down):  2.103E-04 0.000E+00

     total cpu time spent up to now is     2012.5 secs

     total energy              =  -12616.37297247 Ry
     estimated scf accuracy    <       0.00000008 Ry

     iteration # 49     ecut=    70.00 Ry     beta= 0.20
     Davidson diagonalization with overlap
     ethr =  1.02E-11,  avg # of iterations =  1.0

     negative rho (up, down):  2.103E-04 0.000E+00

     total cpu time spent up to now is     2048.7 secs

     total energy              =  -12616.37297247 Ry
     estimated scf accuracy    <       0.00000004 Ry

     iteration # 50     ecut=    70.00 Ry     beta= 0.20
     Davidson diagonalization with overlap
     ethr =  4.75E-12,  avg # of iterations =  1.0

     negative rho (up, down):  2.103E-04 0.000E+00

     total cpu time spent up to now is     2084.9 secs

     total energy              =  -12616.37297247 Ry
     estimated scf accuracy    <       0.00000001 Ry

     iteration # 51     ecut=    70.00 Ry     beta= 0.20
     Davidson diagonalization with overlap
     ethr =  1.78E-12,  avg # of iterations =  2.6

     negative rho (up, down):  2.103E-04 0.000E+00

     total cpu time spent up to now is     2126.1 secs

     total energy              =  -12616.37297247 Ry
     estimated scf accuracy    <       0.00000003 Ry

     iteration # 52     ecut=    70.00 Ry     beta= 0.20
     Davidson diagonalization with overlap
     ethr =  1.78E-12,  avg # of iterations =  1.0

     negative rho (up, down):  2.103E-04 0.000E+00

     total cpu time spent up to now is     2162.1 secs

     total energy              =  -12616.37297247 Ry
     estimated scf accuracy    <       0.00000001 Ry

     iteration # 53     ecut=    70.00 Ry     beta= 0.20
     Davidson diagonalization with overlap
     ethr =  1.28E-12,  avg # of iterations =  2.0

     negative rho (up, down):  2.103E-04 0.000E+00

     total cpu time spent up to now is     2203.2 secs

     total energy              =  -12616.37297247 Ry
     estimated scf accuracy    <       0.00000001 Ry

     iteration # 54     ecut=    70.00 Ry     beta= 0.20
     Davidson diagonalization with overlap
     ethr =  1.28E-12,  avg # of iterations =  1.0

     negative rho (up, down):  2.103E-04 0.000E+00

     total cpu time spent up to now is     2239.4 secs

     total energy              =  -12616.37297248 Ry
     estimated scf accuracy    <       0.00000001 Ry

     iteration # 55     ecut=    70.00 Ry     beta= 0.20
     Davidson diagonalization with overlap
     ethr =  1.28E-12,  avg # of iterations =  1.0

     negative rho (up, down):  2.103E-04 0.000E+00

     total cpu time spent up to now is     2275.5 secs

     End of self-consistent calculation

          k = 0.0000 0.0000 0.0000 (108303 PWs)   bands (ev):

   -67.0181 -66.9778 -66.9774 -66.9773 -66.9698 -66.9691 -66.9678 -66.9673
   -66.9438 -66.9430 -66.9425 -66.9404 -66.9401 -66.9393 -66.9361 -66.9350
   -66.9337 -66.9324 -66.9315 -66.9230 -66.9217 -66.9208 -66.9186 -66.9170
   -66.7642 -66.7349 -66.7349 -66.7346 -66.7282 -66.7277 -66.7273 -66.7116
   -66.7110 -66.7104 -66.7046 -66.7046 -66.6820 -66.6495 -66.6405 -66.6371
   -66.6357 -66.6197 -66.6019 -66.5996 -66.5978 -66.5932 -66.5889 -66.5863
   -38.8222 -38.7955 -38.7950 -38.7921 -38.6931 -38.6926 -38.6921 -38.6535
   -38.6532 -38.6376 -38.6373 -38.6353 -38.6133 -38.5833 -38.5826 -38.5777
   -38.5593 -38.5585 -38.5577 -38.5344 -38.5278 -38.5272 -38.4949 -38.4948
   -38.4908 -38.4904 -38.4892 -38.4823 -38.4078 -38.3963 -38.3918 -38.3909
   -38.3887 -38.3856 -38.3855 -38.3844 -38.3811 -38.3811 -38.3456 -38.3453
   -38.3446 -38.3289 -38.3284 -38.3279 -38.3150 -38.2856 -38.2848 -38.2833
   -38.2824 -38.2809 -38.2799 -38.2788 -38.2788 -38.2741 -38.2603 -38.2603
   -38.2559 -38.2548 -38.2513 -38.2481 -38.2471 -38.2469 -38.2462 -38.2442
   -38.2361 -38.2329 -38.2327 -38.2280 -38.2204 -38.2182 -38.2170 -38.1853
   -38.1777 -38.1701 -38.1667 -38.1623 -38.1594 -38.1585 -38.1578 -38.1538
   -38.1454 -38.1350 -38.1333 -38.1295 -38.1181 -38.1120 -38.1111 -38.1086
   -38.1013 -38.0956 -38.0947 -38.0718 -38.0704 -38.0670 -38.0659 -38.0632
   -38.0577 -38.0551 -38.0491 -38.0469 -38.0454 -38.0211 -38.0203 -38.0202
   -37.9877 -37.9864 -37.9797 -37.9791 -37.9779 -37.9725 -37.9687 -37.9625
   -37.9617 -37.9609 -37.9591 -37.9441 -37.9435 -37.9351 -37.9345 -37.9278
   -37.9274 -37.9168 -37.9165 -37.9162 -37.8828 -37.8825 -37.8820 -37.8816
   -37.8809 -37.8807 -37.8525 -37.8524 -37.8492 -37.8325 -37.8239 -37.8229
   -37.7203 -37.7195 -37.7091 -37.6921 -37.6914 -37.6889 -37.6711 -37.6689
   -12.5191 -12.0495 -11.8167 -11.8158 -11.8152 -11.6713 -11.6691 -11.6634
   -11.6444 -11.6438 -11.6400 -11.3628 -11.3611 -11.3569 -11.2844 -11.2526
   -11.2514 -11.2480 -11.0211 -10.9980  -8.7272  -8.7271  -8.7271  -8.6695
    -8.6075  -3.0224  -3.0196  -3.0191  -2.8086  -2.7776  -2.7775  -2.5834
    -2.5829  -2.5824  -2.5721  -2.5572  -2.5555  -2.4923  -2.4354  -2.4227
    -2.4223  -2.3418  -2.3354  -2.3350  -2.2555  -2.2550  -1.7968  -1.7777
    -1.7764  -1.6142  -1.5992  -1.5969  -1.5495  -1.5151  -1.5026  -1.4652
    -1.4447  -1.4435  -1.4103  -1.3587  -1.3573  -1.3544  -1.3056  -1.3020
    -1.2678  -1.2470  -1.2450  -1.2217  -1.1489  -1.1060  -1.1045  -1.0018
    -0.9399  -0.9363  -0.9215  -0.9183  -0.9113  -0.8726  -0.8445  -0.8436
    -0.8377  -0.7381  -0.7034  -0.6879  -0.6801  -0.4543  -0.4508  -0.4502
     0.6400   1.2086   1.2090   1.2091   1.4516   1.4518   1.4518   1.5270
     1.5454   1.5454   1.5658   1.5665   1.5671   1.5878   1.5880   1.5884
     1.7558   1.7630   1.7637   2.0485   2.0488   2.0503   2.1743   2.1763
     2.1784   2.2069   2.3224   2.3335   2.3342   2.4205   2.4215   2.4271
     2.4357   2.4360   2.4363   2.4982   2.5001   2.5005   2.5165   2.6785
     2.6789   2.7794   2.7840   2.7858   3.1369   3.1384   3.1790   3.2703
     3.2704   3.3317   3.3333   3.3348   3.3473   3.3486   3.3524   3.4672
     3.4710   3.4810   3.5118   3.5353   3.5439   3.6293   3.6518   3.6539
     3.6667   3.6778   3.6785   3.7102   3.7108   3.7144   3.7232   3.8050
     3.8138   3.8148   3.9702   3.9743   4.0189   4.1190   4.1261   4.1292
     4.1423   4.1429   4.2702   4.2768   4.2939   4.2977   4.3403   4.3426
     4.3515   4.4033   4.4047   4.4058   4.4187   4.4799   4.4815   4.4828
     4.5343   4.5348   4.6197   4.6889   4.6892   4.7211   4.7262   4.7708
     4.7737   4.8198   4.8229   4.8341   4.8655   4.8796   4.8810   4.9381
     4.9402   4.9612   5.0020   5.0025   5.0590   5.1106   5.1201   5.1304
     5.2023   5.2211   5.3220   5.3768   5.3773   5.3792   5.4858   5.4875
     5.5266   5.5381   5.5423   5.5514   5.5528   5.5570   5.6742   5.6763
     5.6851   5.6912   5.6950   5.7010   5.7120   5.7128   5.7387   5.7469
     5.7912   5.8275   5.8409   5.8461   5.8519   5.8554   5.8561   5.8810
     5.8903   5.9029   5.9686   5.9738   5.9807   5.9935   5.9958   5.9972
     5.9984   6.0152   6.0537   6.0555   6.0560   6.0926   6.0954   6.1136
     6.1884   6.1890   6.2008   6.2018   6.2026   6.2474   6.2479   6.2541
     6.2584   6.2612   6.3011   6.3044   6.3052   6.3483   6.3503   6.3837
     6.5177   6.5574   6.5582   6.5592   6.6133   6.6156   6.6342   6.6502
     6.6546   6.7021   6.7046   6.7057   6.7094   6.7137   6.7530   6.8179

          k = 0.0000 0.2887 0.0000 (108355 PWs)   bands (ev):

   -67.0147 -66.9905 -66.9813 -66.9808 -66.9648 -66.9632 -66.9626 -66.9564
   -66.9484 -66.9459 -66.9457 -66.9427 -66.9418 -66.9413 -66.9349 -66.9340
   -66.9321 -66.9309 -66.9278 -66.9238 -66.9224 -66.9209 -66.9191 -66.9177
   -66.7615 -66.7438 -66.7374 -66.7367 -66.7243 -66.7234 -66.7196 -66.7131
   -66.7123 -66.7101 -66.7061 -66.7057 -66.6815 -66.6496 -66.6420 -66.6388
   -66.6344 -66.6184 -66.6007 -66.5985 -66.5975 -66.5936 -66.5897 -66.5872
   -38.8189 -38.7991 -38.7912 -38.7889 -38.6884 -38.6876 -38.6865 -38.6613
   -38.6521 -38.6440 -38.6436 -38.6403 -38.6149 -38.5995 -38.5862 -38.5821
   -38.5554 -38.5525 -38.5434 -38.5360 -38.5297 -38.5281 -38.5229 -38.5004
   -38.4848 -38.4838 -38.4822 -38.4608 -38.4018 -38.4001 -38.3954 -38.3902
   -38.3875 -38.3812 -38.3798 -38.3791 -38.3743 -38.3668 -38.3504 -38.3473
   -38.3455 -38.3375 -38.3320 -38.3304 -38.3120 -38.3007 -38.2954 -38.2856
   -38.2842 -38.2828 -38.2823 -38.2822 -38.2783 -38.2757 -38.2696 -38.2655
   -38.2630 -38.2619 -38.2569 -38.2503 -38.2499 -38.2453 -38.2369 -38.2330
   -38.2308 -38.2276 -38.2260 -38.2163 -38.2111 -38.2090 -38.2079 -38.1872
   -38.1800 -38.1754 -38.1712 -38.1702 -38.1658 -38.1582 -38.1577 -38.1469
   -38.1450 -38.1394 -38.1379 -38.1256 -38.1225 -38.1154 -38.1116 -38.1035
   -38.1010 -38.0988 -38.0883 -38.0754 -38.0716 -38.0672 -38.0653 -38.0583
   -38.0554 -38.0483 -38.0450 -38.0416 -38.0408 -38.0269 -38.0251 -38.0225
   -37.9915 -37.9873 -37.9848 -37.9773 -37.9766 -37.9748 -37.9654 -37.9635
   -37.9597 -37.9584 -37.9562 -37.9418 -37.9410 -37.9355 -37.9333 -37.9297
   -37.9280 -37.9191 -37.9188 -37.9150 -37.8887 -37.8848 -37.8846 -37.8764
   -37.8753 -37.8728 -37.8625 -37.8550 -37.8473 -37.8318 -37.8249 -37.8238
   -37.7186 -37.7165 -37.7066 -37.6936 -37.6898 -37.6872 -37.6783 -37.6710
   -12.4554 -12.0283 -12.0071 -11.8722 -11.8705 -11.7402 -11.6547 -11.6505
   -11.5790 -11.5761 -11.4980 -11.3538 -11.3496 -11.3034 -11.2847 -11.2820
   -11.2723 -11.2187 -11.0542 -11.0329  -8.7287  -8.7287  -8.7174  -8.6766
    -8.6075  -2.9902  -2.9875  -2.9477  -2.8351  -2.7646  -2.7516  -2.7300
    -2.7237  -2.7221  -2.6088  -2.6049  -2.4581  -2.4165  -2.3773  -2.3650
    -2.3646  -2.3075  -2.2543  -2.2277  -2.2221  -2.1765  -1.9810  -1.7930
    -1.7875  -1.7532  -1.6657  -1.6518  -1.5989  -1.5087  -1.5030  -1.4789
    -1.4411  -1.4292  -1.4125  -1.3917  -1.3542  -1.3412  -1.3339  -1.2818
    -1.2737  -1.2627  -1.2279  -1.1693  -1.1343  -1.0942  -1.0774  -1.0333
    -0.9708  -0.9248  -0.9140  -0.9005  -0.8557  -0.8515  -0.8467  -0.8221
    -0.7953  -0.7464  -0.7118  -0.6675  -0.6641  -0.5228  -0.4792  -0.4768
     0.7613   1.1704   1.2018   1.2023   1.4412   1.4413   1.4511   1.4536
     1.5178   1.5363   1.5372   1.5562   1.6174   1.6557   1.6584   1.6703
     1.7711   1.7752   1.8174   2.0566   2.0582   2.1003   2.1507   2.1537
     2.2064   2.2589   2.2909   2.2951   2.3185   2.4167   2.4191   2.4345
     2.4451   2.4471   2.5096   2.5392   2.5419   2.5599   2.5815   2.6111
     2.7137   2.7926   2.7949   2.8560   3.0108   3.0599   3.1224   3.1924
     3.1938   3.2255   3.2309   3.2583   3.3551   3.3581   3.3831   3.3897
     3.3917   3.4322   3.5097   3.5777   3.5945   3.6039   3.6320   3.6735
     3.6940   3.7070   3.7153   3.7243   3.7680   3.7744   3.7773   3.8598
     3.9795   3.9932   4.0084   4.0197   4.0289   4.0378   4.0516   4.1400
     4.1616   4.1782   4.2353   4.2417   4.2700   4.2870   4.2995   4.3032
     4.3244   4.3528   4.3694   4.3754   4.3987   4.4724   4.4788   4.4884
     4.4921   4.5588   4.5677   4.6532   4.6864   4.7156   4.7407   4.7591
     4.7746   4.7877   4.8296   4.8451   4.8881   4.9210   4.9324   4.9395
     4.9660   4.9743   4.9964   5.0569   5.0717   5.1291   5.1406   5.1757
     5.1883   5.2241   5.2840   5.3013   5.3188   5.3504   5.3764   5.4452
     5.4571   5.4635   5.4646   5.5139   5.5365   5.5496   5.5594   5.5666
     5.5742   5.6708   5.6827   5.7069   5.7302   5.7439   5.7487   5.7545
     5.7830   5.7995   5.8067   5.8253   5.8346   5.8729   5.8806   5.8846
     5.8889   5.9194   5.9388   5.9598   5.9629   5.9734   6.0051   6.0119
     6.0203   6.0305   6.0347   6.0403   6.0543   6.0571   6.0877   6.1693
     6.1950   6.2006   6.2199   6.2404   6.2454   6.2479   6.2500   6.2975
     6.3057   6.3085   6.3145   6.3600   6.3888   6.3979   6.4092   6.4478
     6.4580   6.4657   6.5286   6.5348   6.5452   6.5536   6.6410   6.6492
     6.6635   6.6851   6.6915   6.7129   6.7321   6.7459   6.7913   6.7955

          k = 0.0000-0.5774 0.0000 (108310 PWs)   bands (ev):

   -67.0051 -67.0045 -66.9834 -66.9829 -66.9585 -66.9578 -66.9554 -66.9549
   -66.9516 -66.9512 -66.9446 -66.9436 -66.9429 -66.9425 -66.9383 -66.9378
   -66.9283 -66.9270 -66.9261 -66.9249 -66.9223 -66.9215 -66.9196 -66.9191
   -66.7543 -66.7542 -66.7389 -66.7381 -66.7194 -66.7184 -66.7166 -66.7159
   -66.7116 -66.7108 -66.7081 -66.7078 -66.6809 -66.6496 -66.6432 -66.6407
   -66.6333 -66.6173 -66.6000 -66.5983 -66.5954 -66.5931 -66.5920 -66.5881
   -38.8101 -38.8091 -38.7868 -38.7847 -38.6826 -38.6794 -38.6772 -38.6752
   -38.6537 -38.6502 -38.6471 -38.6461 -38.6139 -38.6126 -38.5885 -38.5842
   -38.5524 -38.5478 -38.5419 -38.5403 -38.5367 -38.5328 -38.5156 -38.5129
   -38.4776 -38.4762 -38.4651 -38.4640 -38.4113 -38.4093 -38.3868 -38.3856
   -38.3799 -38.3792 -38.3714 -38.3707 -38.3606 -38.3587 -38.3488 -38.3478
   -38.3431 -38.3427 -38.3371 -38.3327 -38.3217 -38.3205 -38.3023 -38.2872
   -38.2865 -38.2860 -38.2830 -38.2825 -38.2818 -38.2782 -38.2761 -38.2683
   -38.2652 -38.2638 -38.2631 -38.2543 -38.2523 -38.2515 -38.2316 -38.2290
   -38.2240 -38.2121 -38.2099 -38.2058 -38.2016 -38.1997 -38.1994 -38.1965
   -38.1903 -38.1847 -38.1806 -38.1796 -38.1581 -38.1543 -38.1505 -38.1489
   -38.1460 -38.1457 -38.1334 -38.1327 -38.1288 -38.1195 -38.1140 -38.1051
   -38.0971 -38.0959 -38.0795 -38.0748 -38.0728 -38.0681 -38.0639 -38.0613
   -38.0553 -38.0523 -38.0423 -38.0376 -38.0352 -38.0305 -38.0137 -38.0095
   -38.0010 -37.9974 -37.9873 -37.9852 -37.9753 -37.9741 -37.9660 -37.9592
   -37.9580 -37.9547 -37.9514 -37.9487 -37.9372 -37.9338 -37.9310 -37.9299
   -37.9219 -37.9217 -37.9210 -37.9204 -37.8863 -37.8860 -37.8824 -37.8817
   -37.8724 -37.8712 -37.8625 -37.8623 -37.8454 -37.8296 -37.8272 -37.8249
   -37.7169 -37.7070 -37.7059 -37.6972 -37.6897 -37.6882 -37.6834 -37.6734
   -12.2794 -12.2775 -11.9069 -11.9052 -11.8938 -11.8902 -11.6623 -11.6583
   -11.4911 -11.4887 -11.3657 -11.3643 -11.3547 -11.3487 -11.3279 -11.3266
   -11.1477 -11.1430 -11.1257 -11.1254  -8.7303  -8.7303  -8.6957  -8.6957
    -8.6075  -2.9573  -2.9510  -2.8614  -2.8584  -2.7955  -2.7925  -2.7907
    -2.7877  -2.6663  -2.6660  -2.5506  -2.5482  -2.3916  -2.3839  -2.3236
    -2.3176  -2.2736  -2.2620  -2.1469  -2.1383  -2.0570  -2.0547  -1.8628
    -1.8606  -1.7446  -1.7187  -1.6875  -1.6793  -1.6032  -1.5856  -1.4837
    -1.4630  -1.4621  -1.4556  -1.3584  -1.3446  -1.2870  -1.2818  -1.2725
    -1.2643  -1.2406  -1.1954  -1.1462  -1.1267  -1.0687  -1.0668  -1.0443
    -1.0381  -0.9238  -0.9171  -0.8760  -0.8702  -0.8552  -0.8397  -0.7547
    -0.7514  -0.7153  -0.6857  -0.6848  -0.6404  -0.6355  -0.5028  -0.5006
     1.0035   1.0059   1.1897   1.1902   1.4194   1.4213   1.4414   1.4418
     1.5172   1.5174   1.5334   1.5338   1.6739   1.6762   1.6839   1.6906
     1.9096   1.9144   1.9181   1.9194   2.0904   2.0939   2.1279   2.1311
     2.2197   2.2224   2.3529   2.3547   2.3767   2.3774   2.4085   2.4094
     2.4471   2.4496   2.4584   2.4624   2.5666   2.5717   2.7388   2.7440
     2.7932   2.7970   2.8141   2.8184   3.0085   3.0135   3.0308   3.0323
     3.1018   3.1029   3.1947   3.2050   3.3200   3.3221   3.3806   3.3837
     3.4147   3.4179   3.5124   3.5147   3.6035   3.6194   3.6622   3.6651
     3.7261   3.7319   3.8049   3.8120   3.8610   3.8653   3.8984   3.9037
     3.9307   3.9373   3.9607   3.9808   3.9961   4.0014   4.1180   4.1325
     4.1452   4.1549   4.2636   4.2791   4.2827   4.3144   4.3156   4.3382
     4.3503   4.3533   4.3592   4.3785   4.4322   4.4546   4.4647   4.4707
     4.4732   4.4857   4.5926   4.6027   4.6112   4.6298   4.6721   4.6742
     4.6910   4.6920   4.8042   4.8245   4.9774   4.9804   4.9860   4.9873
     4.9914   5.0209   5.0574   5.0801   5.1091   5.1134   5.1282   5.1335
     5.1762   5.1831   5.2566   5.3067   5.3358   5.3386   5.3489   5.3520
     5.4280   5.4309   5.4569   5.4947   5.5120   5.5182   5.5543   5.5717
     5.5741   5.5791   5.5923   5.6581   5.6957   5.7022   5.7357   5.7389
     5.7530   5.7606   5.7624   5.7856   5.8279   5.8417   5.8651   5.8674
     5.8778   5.8925   5.9073   5.9095   5.9487   5.9781   5.9962   5.9996
     6.0284   6.0496   6.0657   6.1017   6.1426   6.1556   6.1588   6.1690
     6.1709   6.1809   6.1853   6.1932   6.2028   6.2082   6.3325   6.3346
     6.3395   6.3510   6.3843   6.3856   6.4182   6.4242   6.4377   6.4429
     6.4556   6.4655   6.4895   6.4915   6.6032   6.6089   6.6158   6.6189
     6.6474   6.6552   6.7058   6.7101   6.8398   6.8497   6.8507   6.8615

          k = 0.2500 0.4330 0.0000 (108308 PWs)   bands (ev):

   -67.0080 -66.9964 -66.9954 -66.9722 -66.9639 -66.9603 -66.9543 -66.9529
   -66.9514 -66.9493 -66.9486 -66.9435 -66.9422 -66.9394 -66.9383 -66.9366
   -66.9318 -66.9273 -66.9255 -66.9237 -66.9222 -66.9209 -66.9205 -66.9189
   -66.7566 -66.7478 -66.7477 -66.7310 -66.7244 -66.7182 -66.7149 -66.7149
   -66.7109 -66.7109 -66.7088 -66.7080 -66.6809 -66.6481 -66.6468 -66.6364
   -66.6357 -66.6172 -66.6003 -66.5978 -66.5953 -66.5947 -66.5898 -66.5892
   -38.8122 -38.8008 -38.7996 -38.7779 -38.6829 -38.6818 -38.6761 -38.6720
   -38.6572 -38.6505 -38.6465 -38.6442 -38.6143 -38.6052 -38.6050 -38.5658
   -38.5594 -38.5481 -38.5467 -38.5414 -38.5403 -38.5243 -38.5204 -38.5080
   -38.4731 -38.4726 -38.4718 -38.4603 -38.4369 -38.3897 -38.3889 -38.3878
   -38.3793 -38.3765 -38.3676 -38.3639 -38.3637 -38.3582 -38.3576 -38.3492
   -38.3433 -38.3376 -38.3358 -38.3338 -38.3175 -38.3124 -38.3106 -38.3017
   -38.2879 -38.2870 -38.2839 -38.2792 -38.2759 -38.2734 -38.2695 -38.2690
   -38.2674 -38.2662 -38.2602 -38.2545 -38.2519 -38.2512 -38.2498 -38.2232
   -38.2168 -38.2140 -38.2101 -38.2046 -38.2041 -38.1998 -38.1977 -38.1920
   -38.1898 -38.1855 -38.1845 -38.1801 -38.1599 -38.1515 -38.1513 -38.1457
   -38.1421 -38.1402 -38.1393 -38.1361 -38.1295 -38.1282 -38.1114 -38.1011
   -38.0975 -38.0961 -38.0780 -38.0777 -38.0756 -38.0696 -38.0666 -38.0611
   -38.0558 -38.0436 -38.0425 -38.0375 -38.0324 -38.0230 -38.0209 -38.0154
   -38.0011 -37.9898 -37.9892 -37.9843 -37.9764 -37.9716 -37.9667 -37.9624
   -37.9605 -37.9538 -37.9533 -37.9482 -37.9371 -37.9330 -37.9306 -37.9284
   -37.9261 -37.9245 -37.9163 -37.9161 -37.8906 -37.8905 -37.8790 -37.8780
   -37.8765 -37.8669 -37.8668 -37.8592 -37.8456 -37.8299 -37.8264 -37.8253
   -37.7148 -37.7114 -37.7011 -37.7007 -37.6920 -37.6848 -37.6836 -37.6732
   -12.3352 -12.1223 -12.1212 -11.9284 -11.7943 -11.7927 -11.7442 -11.5774
   -11.5512 -11.4413 -11.4223 -11.4208 -11.4056 -11.3409 -11.2298 -11.2282
   -11.2062 -11.2054 -11.1176 -11.0978  -8.7390  -8.7116  -8.7115  -8.6899
    -8.6075  -3.0055  -2.9066  -2.9033  -2.8876  -2.7762  -2.7741  -2.7350
    -2.6979  -2.6463  -2.6340  -2.6115  -2.6085  -2.5660  -2.3781  -2.2437
    -2.2370  -2.2259  -2.2078  -2.1571  -2.1463  -2.1049  -2.1021  -1.9815
    -1.8207  -1.7935  -1.7144  -1.6934  -1.6061  -1.5526  -1.5435  -1.4664
    -1.4476  -1.4411  -1.4204  -1.3996  -1.3908  -1.3842  -1.3296  -1.2428
    -1.2272  -1.2056  -1.1685  -1.1601  -1.1561  -1.1153  -1.0918  -0.9798
    -0.9544  -0.9433  -0.8948  -0.8883  -0.8805  -0.8484  -0.8305  -0.8213
    -0.7725  -0.7589  -0.7171  -0.6776  -0.5815  -0.5703  -0.5672  -0.4737
     0.9385   1.1218   1.1221   1.2225   1.4069   1.4232   1.4238   1.4258
     1.4693   1.5504   1.5508   1.5780   1.6435   1.6625   1.6636   1.7209
     1.8394   1.9574   1.9587   2.0456   2.0468   2.1095   2.1119   2.1692
     2.1753   2.2375   2.2382   2.2702   2.3448   2.3509   2.3852   2.3855
     2.4369   2.4865   2.5526   2.5798   2.5804   2.6628   2.6644   2.7772
     2.7822   2.7863   2.8192   2.8217   2.9187   2.9247   2.9256   2.9911
     3.1739   3.2362   3.2813   3.2820   3.3272   3.3280   3.3358   3.4214
     3.4255   3.4266   3.4433   3.5523   3.5701   3.5724   3.6383   3.6976
     3.7085   3.7426   3.7480   3.7766   3.7823   3.8398   3.8610   3.8812
     4.0118   4.0205   4.0430   4.0524   4.0585   4.0692   4.0715   4.1128
     4.1379   4.1565   4.1922   4.2288   4.2330   4.2873   4.3061   4.3213
     4.3526   4.3594   4.3933   4.3954   4.4229   4.4260   4.4534   4.4585
     4.5542   4.5569   4.5782   4.5890   4.5918   4.5999   4.6392   4.6675
     4.7225   4.8511   4.8535   4.8771   4.8793   4.8878   4.8953   4.8999
     4.9469   4.9733   5.0300   5.0540   5.1149   5.1495   5.1537   5.1580
     5.1808   5.2679   5.2814   5.3063   5.3091   5.3389   5.3872   5.4156
     5.4270   5.4299   5.4475   5.4758   5.4950   5.5088   5.5521   5.5747
     5.5909   5.6123   5.6471   5.7015   5.7114   5.7150   5.7281   5.7335
     5.7613   5.7674   5.7685   5.7725   5.7894   5.8425   5.8507   5.8683
     5.8716   5.8823   5.9134   5.9154   5.9267   5.9610   5.9684   6.0180
     6.0218   6.0384   6.0564   6.0678   6.0862   6.0982   6.1019   6.1668
     6.1688   6.1746   6.2046   6.2098   6.2306   6.2613   6.2833   6.3018
     6.3305   6.3476   6.3626   6.3641   6.4219   6.4504   6.4630   6.4918
     6.4956   6.4977   6.5605   6.5606   6.5895   6.6126   6.6408   6.6633
     6.6660   6.6768   6.7058   6.7195   6.7399   6.7878   6.8429   6.8476

          k =-0.2500 0.1443 0.0000 (108355 PWs)   bands (ev):

   -67.0147 -66.9905 -66.9811 -66.9810 -66.9648 -66.9635 -66.9622 -66.9565
   -66.9484 -66.9464 -66.9453 -66.9426 -66.9416 -66.9414 -66.9352 -66.9337
   -66.9324 -66.9308 -66.9278 -66.9237 -66.9221 -66.9214 -66.9190 -66.9177
   -66.7615 -66.7438 -66.7372 -66.7370 -66.7238 -66.7238 -66.7196 -66.7129
   -66.7127 -66.7100 -66.7062 -66.7056 -66.6814 -66.6506 -66.6404 -66.6384
   -66.6354 -66.6186 -66.5999 -66.5994 -66.5978 -66.5929 -66.5903 -66.5869
   -38.8189 -38.7991 -38.7909 -38.7892 -38.6882 -38.6878 -38.6866 -38.6610
   -38.6524 -38.6439 -38.6435 -38.6407 -38.6149 -38.5997 -38.5861 -38.5816
   -38.5554 -38.5525 -38.5436 -38.5362 -38.5293 -38.5282 -38.5228 -38.5005
   -38.4851 -38.4832 -38.4826 -38.4609 -38.4016 -38.4000 -38.3954 -38.3903
   -38.3878 -38.3812 -38.3798 -38.3792 -38.3741 -38.3669 -38.3501 -38.3470
   -38.3455 -38.3379 -38.3311 -38.3305 -38.3122 -38.3003 -38.2963 -38.2859
   -38.2842 -38.2829 -38.2826 -38.2823 -38.2775 -38.2770 -38.2694 -38.2659
   -38.2632 -38.2620 -38.2556 -38.2503 -38.2497 -38.2444 -38.2380 -38.2322
   -38.2316 -38.2282 -38.2265 -38.2154 -38.2105 -38.2091 -38.2084 -38.1885
   -38.1792 -38.1744 -38.1716 -38.1688 -38.1663 -38.1582 -38.1579 -38.1475
   -38.1454 -38.1396 -38.1380 -38.1252 -38.1200 -38.1153 -38.1139 -38.1037
   -38.1016 -38.0972 -38.0881 -38.0762 -38.0701 -38.0685 -38.0652 -38.0581
   -38.0553 -38.0478 -38.0458 -38.0410 -38.0401 -38.0277 -38.0255 -38.0225
   -37.9914 -37.9877 -37.9843 -37.9777 -37.9765 -37.9740 -37.9666 -37.9639
   -37.9605 -37.9580 -37.9568 -37.9419 -37.9401 -37.9343 -37.9338 -37.9294
   -37.9284 -37.9193 -37.9187 -37.9150 -37.8887 -37.8849 -37.8846 -37.8760
   -37.8756 -37.8728 -37.8625 -37.8550 -37.8472 -37.8319 -37.8249 -37.8238
   -37.7181 -37.7169 -37.7069 -37.6931 -37.6888 -37.6883 -37.6768 -37.6727
   -12.4554 -12.0282 -12.0072 -11.8717 -11.8711 -11.7403 -11.6537 -11.6515
   -11.5783 -11.5769 -11.4980 -11.3526 -11.3509 -11.3034 -11.2840 -11.2830
   -11.2721 -11.2186 -11.0542 -11.0329  -8.7288  -8.7287  -8.7174  -8.6766
    -8.6075  -2.9903  -2.9881  -2.9471  -2.8347  -2.7639  -2.7519  -2.7288
    -2.7259  -2.7214  -2.6082  -2.6046  -2.4616  -2.4172  -2.3744  -2.3658
    -2.3647  -2.3062  -2.2547  -2.2266  -2.2210  -2.1763  -1.9814  -1.7997
    -1.7847  -1.7506  -1.6700  -1.6534  -1.5995  -1.5055  -1.5036  -1.4780
    -1.4408  -1.4339  -1.4126  -1.3905  -1.3505  -1.3440  -1.3355  -1.2800
    -1.2737  -1.2580  -1.2275  -1.1643  -1.1368  -1.0962  -1.0766  -1.0330
    -0.9761  -0.9256  -0.9134  -0.9016  -0.8542  -0.8506  -0.8407  -0.8195
    -0.7934  -0.7554  -0.7121  -0.6675  -0.6622  -0.5232  -0.4787  -0.4770
     0.7608   1.1702   1.2019   1.2022   1.4412   1.4414   1.4509   1.4536
     1.5182   1.5362   1.5372   1.5562   1.6174   1.6553   1.6580   1.6705
     1.7700   1.7749   1.8175   2.0565   2.0577   2.1020   2.1505   2.1534
     2.2064   2.2578   2.2925   2.2954   2.3182   2.4163   2.4187   2.4347
     2.4457   2.4470   2.5111   2.5399   2.5417   2.5590   2.5815   2.6101
     2.7131   2.7928   2.7934   2.8579   3.0118   3.0595   3.1234   3.1915
     3.1953   3.2252   3.2310   3.2584   3.3556   3.3580   3.3814   3.3900
     3.3910   3.4321   3.5097   3.5759   3.5926   3.6024   3.6334   3.6839
     3.6923   3.7029   3.7158   3.7234   3.7697   3.7736   3.7769   3.8568
     3.9835   4.0001   4.0074   4.0186   4.0274   4.0362   4.0524   4.1370
     4.1676   4.1771   4.2339   4.2421   4.2680   4.2864   4.2971   4.3019
     4.3244   4.3530   4.3709   4.3782   4.3952   4.4698   4.4781   4.4890
     4.4964   4.5559   4.5663   4.6456   4.6816   4.7260   4.7437   4.7539
     4.7747   4.7817   4.8312   4.8368   4.8815   4.9138   4.9334   4.9354
     4.9693   4.9897   4.9989   5.0538   5.0965   5.1322   5.1364   5.1779
     5.1900   5.2198   5.2855   5.2940   5.3299   5.3484   5.3746   5.4390
     5.4583   5.4626   5.4635   5.5125   5.5364   5.5498   5.5537   5.5667
     5.5689   5.6535   5.6915   5.7243   5.7375   5.7488   5.7527   5.7529
     5.7711   5.8039   5.8118   5.8187   5.8319   5.8685   5.8823   5.8853
     5.8907   5.9290   5.9394   5.9592   5.9637   5.9772   5.9995   6.0094
     6.0184   6.0275   6.0370   6.0424   6.0539   6.0567   6.0851   6.1757
     6.1928   6.2007   6.2202   6.2391   6.2442   6.2485   6.2511   6.3052
     6.3065   6.3097   6.3146   6.3595   6.3873   6.3956   6.3996   6.4484
     6.4592   6.4713   6.5291   6.5330   6.5473   6.5512   6.6429   6.6499
     6.6640   6.6886   6.6899   6.7091   6.7317   6.7527   6.7899   6.7946

          k = 0.2500 0.1443 0.0000 (108355 PWs)   bands (ev):

   -67.0147 -66.9905 -66.9812 -66.9809 -66.9648 -66.9630 -66.9626 -66.9565
   -66.9483 -66.9459 -66.9457 -66.9426 -66.9420 -66.9413 -66.9349 -66.9339
   -66.9318 -66.9311 -66.9279 -66.9237 -66.9227 -66.9207 -66.9192 -66.9176
   -66.7615 -66.7438 -66.7374 -66.7367 -66.7243 -66.7234 -66.7196 -66.7131
   -66.7123 -66.7101 -66.7061 -66.7057 -66.6815 -66.6497 -66.6417 -66.6387
   -66.6349 -66.6183 -66.6010 -66.5985 -66.5973 -66.5936 -66.5894 -66.5874
   -38.8189 -38.7991 -38.7913 -38.7888 -38.6884 -38.6876 -38.6865 -38.6612
   -38.6521 -38.6440 -38.6436 -38.6404 -38.6149 -38.5995 -38.5862 -38.5820
   -38.5554 -38.5525 -38.5434 -38.5360 -38.5298 -38.5282 -38.5229 -38.5004
   -38.4845 -38.4840 -38.4821 -38.4607 -38.4022 -38.4003 -38.3953 -38.3902
   -38.3873 -38.3813 -38.3797 -38.3790 -38.3744 -38.3666 -38.3505 -38.3473
   -38.3454 -38.3373 -38.3323 -38.3304 -38.3118 -38.3008 -38.2953 -38.2856
   -38.2842 -38.2828 -38.2823 -38.2821 -38.2785 -38.2754 -38.2695 -38.2654
   -38.2631 -38.2619 -38.2572 -38.2503 -38.2499 -38.2455 -38.2368 -38.2330
   -38.2306 -38.2273 -38.2262 -38.2164 -38.2114 -38.2088 -38.2079 -38.1873
   -38.1794 -38.1750 -38.1718 -38.1702 -38.1662 -38.1582 -38.1576 -38.1470
   -38.1448 -38.1394 -38.1376 -38.1263 -38.1226 -38.1155 -38.1104 -38.1041
   -38.1010 -38.0989 -38.0884 -38.0756 -38.0710 -38.0673 -38.0654 -38.0583
   -38.0555 -38.0482 -38.0452 -38.0418 -38.0407 -38.0267 -38.0252 -38.0225
   -37.9916 -37.9870 -37.9851 -37.9771 -37.9765 -37.9746 -37.9662 -37.9627
   -37.9596 -37.9581 -37.9564 -37.9423 -37.9409 -37.9355 -37.9333 -37.9300
   -37.9279 -37.9191 -37.9188 -37.9150 -37.8887 -37.8848 -37.8846 -37.8764
   -37.8753 -37.8728 -37.8625 -37.8550 -37.8473 -37.8318 -37.8248 -37.8238
   -37.7184 -37.7165 -37.7066 -37.6934 -37.6911 -37.6863 -37.6784 -37.6709
   -12.4555 -12.0283 -12.0071 -11.8724 -11.8704 -11.7402 -11.6549 -11.6502
   -11.5792 -11.5759 -11.4980 -11.3540 -11.3493 -11.3034 -11.2849 -11.2818
   -11.2724 -11.2187 -11.0542 -11.0329  -8.7288  -8.7287  -8.7174  -8.6766
    -8.6075  -2.9906  -2.9876  -2.9471  -2.8350  -2.7641  -2.7518  -2.7304
    -2.7241  -2.7220  -2.6086  -2.6051  -2.4577  -2.4161  -2.3775  -2.3650
    -2.3644  -2.3071  -2.2546  -2.2283  -2.2229  -2.1764  -1.9810  -1.7940
    -1.7866  -1.7535  -1.6647  -1.6496  -1.5974  -1.5105  -1.5034  -1.4786
    -1.4417  -1.4309  -1.4110  -1.3920  -1.3576  -1.3410  -1.3312  -1.2794
    -1.2712  -1.2635  -1.2286  -1.1719  -1.1364  -1.0927  -1.0798  -1.0327
    -0.9686  -0.9262  -0.9133  -0.9009  -0.8562  -0.8523  -0.8472  -0.8227
    -0.7949  -0.7348  -0.7210  -0.6687  -0.6627  -0.5226  -0.4794  -0.4770
     0.7614   1.1704   1.2018   1.2022   1.4412   1.4413   1.4511   1.4536
     1.5179   1.5363   1.5372   1.5562   1.6175   1.6557   1.6585   1.6703
     1.7714   1.7745   1.8175   2.0568   2.0582   2.1002   2.1512   2.1537
     2.2065   2.2590   2.2906   2.2949   2.3185   2.4167   2.4193   2.4344
     2.4453   2.4471   2.5095   2.5391   2.5418   2.5600   2.5815   2.6111
     2.7139   2.7927   2.7944   2.8560   3.0111   3.0598   3.1224   3.1923
     3.1936   3.2255   3.2308   3.2593   3.3549   3.3583   3.3832   3.3897
     3.3914   3.4318   3.5090   3.5805   3.5932   3.6043   3.6319   3.6730
     3.6944   3.7058   3.7142   3.7248   3.7687   3.7740   3.7774   3.8598
     3.9740   3.9938   4.0103   4.0191   4.0305   4.0379   4.0513   4.1413
     4.1628   4.1779   4.2355   4.2408   4.2719   4.2886   4.3000   4.3032
     4.3234   4.3512   4.3697   4.3726   4.3989   4.4706   4.4792   4.4873
     4.4920   4.5614   4.5685   4.6514   4.6851   4.7164   4.7412   4.7602
     4.7747   4.7886   4.8298   4.8462   4.8879   4.9209   4.9323   4.9402
     4.9649   4.9726   4.9965   5.0573   5.0728   5.1256   5.1410   5.1758
     5.1890   5.2252   5.2837   5.3011   5.3179   5.3500   5.3781   5.4462
     5.4570   5.4638   5.4646   5.5136   5.5388   5.5492   5.5583   5.5668
     5.5755   5.6691   5.6827   5.7006   5.7327   5.7451   5.7483   5.7543
     5.7833   5.7984   5.8067   5.8249   5.8347   5.8745   5.8793   5.8846
     5.8890   5.9206   5.9380   5.9598   5.9633   5.9737   6.0076   6.0113
     6.0203   6.0306   6.0349   6.0403   6.0548   6.0571   6.0872   6.1681
     6.1960   6.2004   6.2194   6.2401   6.2447   6.2475   6.2506   6.2958
     6.3076   6.3089   6.3142   6.3602   6.3906   6.3980   6.4085   6.4480
     6.4585   6.4654   6.5288   6.5352   6.5451   6.5535   6.6406   6.6491
     6.6635   6.6850   6.6912   6.7126   6.7318   6.7451   6.7930   6.7953

          k = 0.5000-0.2887 0.0000 (108310 PWs)   bands (ev):

   -67.0053 -67.0043 -66.9833 -66.9831 -66.9587 -66.9573 -66.9560 -66.9541
   -66.9517 -66.9514 -66.9445 -66.9434 -66.9430 -66.9428 -66.9385 -66.9373
   -66.9290 -66.9266 -66.9254 -66.9248 -66.9231 -66.9210 -66.9199 -66.9189
   -66.7543 -66.7542 -66.7386 -66.7385 -66.7189 -66.7188 -66.7164 -66.7162
   -66.7113 -66.7111 -66.7080 -66.7079 -66.6807 -66.6517 -66.6415 -66.6383
   -66.6353 -66.6175 -66.6000 -66.5984 -66.5943 -66.5942 -66.5923 -66.5877
   -38.8099 -38.8092 -38.7866 -38.7850 -38.6827 -38.6794 -38.6776 -38.6743
   -38.6536 -38.6504 -38.6479 -38.6460 -38.6141 -38.6126 -38.5884 -38.5834
   -38.5527 -38.5480 -38.5411 -38.5399 -38.5375 -38.5324 -38.5161 -38.5126
   -38.4781 -38.4758 -38.4656 -38.4641 -38.4110 -38.4091 -38.3870 -38.3857
   -38.3799 -38.3791 -38.3716 -38.3709 -38.3596 -38.3592 -38.3492 -38.3473
   -38.3431 -38.3427 -38.3349 -38.3329 -38.3223 -38.3207 -38.3030 -38.2875
   -38.2864 -38.2862 -38.2839 -38.2827 -38.2821 -38.2784 -38.2772 -38.2684
   -38.2631 -38.2630 -38.2625 -38.2550 -38.2524 -38.2518 -38.2318 -38.2287
   -38.2259 -38.2101 -38.2089 -38.2071 -38.2025 -38.2004 -38.1994 -38.1962
   -38.1929 -38.1830 -38.1808 -38.1780 -38.1560 -38.1519 -38.1508 -38.1487
   -38.1454 -38.1452 -38.1397 -38.1335 -38.1285 -38.1175 -38.1156 -38.1014
   -38.0981 -38.0953 -38.0797 -38.0759 -38.0719 -38.0672 -38.0630 -38.0610
   -38.0546 -38.0537 -38.0409 -38.0385 -38.0366 -38.0317 -38.0112 -38.0093
   -38.0003 -37.9978 -37.9905 -37.9860 -37.9755 -37.9740 -37.9654 -37.9614
   -37.9589 -37.9545 -37.9506 -37.9479 -37.9348 -37.9338 -37.9316 -37.9299
   -37.9222 -37.9215 -37.9212 -37.9202 -37.8864 -37.8860 -37.8822 -37.8819
   -37.8719 -37.8715 -37.8626 -37.8623 -37.8453 -37.8289 -37.8283 -37.8248
   -37.7167 -37.7073 -37.7069 -37.6953 -37.6883 -37.6871 -37.6848 -37.6749
   -12.2790 -12.2778 -11.9066 -11.9057 -11.8926 -11.8912 -11.6614 -11.6593
   -11.4903 -11.4895 -11.3652 -11.3649 -11.3528 -11.3504 -11.3274 -11.3272
   -11.1458 -11.1447 -11.1257 -11.1254  -8.7304  -8.7303  -8.6957  -8.6956
    -8.6075  -2.9574  -2.9516  -2.8601  -2.8584  -2.7952  -2.7931  -2.7905
    -2.7886  -2.6663  -2.6654  -2.5500  -2.5477  -2.3900  -2.3831  -2.3248
    -2.3196  -2.2702  -2.2620  -2.1494  -2.1367  -2.0562  -2.0536  -1.8708
    -1.8609  -1.7469  -1.7167  -1.6903  -1.6801  -1.6063  -1.5854  -1.4778
    -1.4628  -1.4623  -1.4576  -1.3654  -1.3352  -1.2954  -1.2814  -1.2678
    -1.2637  -1.2348  -1.1801  -1.1483  -1.1383  -1.0685  -1.0677  -1.0501
    -1.0318  -0.9255  -0.9198  -0.8762  -0.8727  -0.8540  -0.8290  -0.7586
    -0.7488  -0.7213  -0.6854  -0.6801  -0.6396  -0.6372  -0.5028  -0.5013
     1.0038   1.0045   1.1898   1.1902   1.4198   1.4206   1.4414   1.4417
     1.5171   1.5175   1.5336   1.5337   1.6748   1.6755   1.6826   1.6903
     1.9097   1.9141   1.9168   1.9191   2.0921   2.0924   2.1271   2.1316
     2.2214   2.2232   2.3529   2.3551   2.3768   2.3783   2.4075   2.4091
     2.4470   2.4482   2.4602   2.4619   2.5666   2.5715   2.7396   2.7451
     2.7932   2.7962   2.8128   2.8183   3.0114   3.0139   3.0318   3.0344
     3.1021   3.1025   3.1953   3.1998   3.3192   3.3199   3.3804   3.3846
     3.4121   3.4190   3.5123   3.5132   3.6051   3.6204   3.6611   3.6658
     3.7233   3.7328   3.8044   3.8137   3.8653   3.8792   3.8931   3.9048
     3.9347   3.9370   3.9698   3.9831   3.9924   4.0056   4.1236   4.1373
     4.1452   4.1534   4.2498   4.2631   4.2804   4.3006   4.3154   4.3379
     4.3531   4.3544   4.3578   4.3752   4.4318   4.4462   4.4647   4.4659
     4.4720   4.4779   4.5976   4.6030   4.6040   4.6435   4.6726   4.6738
     4.6920   4.7024   4.8004   4.8107   4.9758   4.9826   4.9869   4.9909
     4.9913   5.0228   5.0585   5.1089   5.1108   5.1131   5.1274   5.1495
     5.1726   5.1792   5.2533   5.2890   5.3366   5.3387   5.3482   5.3519
     5.4310   5.4311   5.4597   5.4937   5.5099   5.5190   5.5561   5.5629
     5.5799   5.5878   5.5910   5.6328   5.6984   5.7001   5.7350   5.7370
     5.7477   5.7587   5.7770   5.8061   5.8174   5.8515   5.8655   5.8678
     5.8720   5.8932   5.9023   5.9096   5.9521   5.9728   5.9959   5.9999
     6.0306   6.0477   6.0687   6.1240   6.1402   6.1574   6.1598   6.1673
     6.1714   6.1812   6.1923   6.1942   6.2054   6.2077   6.3311   6.3360
     6.3408   6.3457   6.3764   6.3852   6.4207   6.4211   6.4372   6.4416
     6.4569   6.4650   6.4882   6.4930   6.6017   6.6053   6.6158   6.6180
     6.6463   6.6581   6.7054   6.7258   6.8408   6.8477   6.8533   6.8592

          k =-0.5000-0.2887 0.0000 (108310 PWs)   bands (ev):

   -67.0051 -67.0046 -66.9833 -66.9830 -66.9584 -66.9579 -66.9552 -66.9548
   -66.9516 -66.9513 -66.9446 -66.9436 -66.9430 -66.9426 -66.9383 -66.9378
   -66.9275 -66.9269 -66.9264 -66.9254 -66.9223 -66.9215 -66.9195 -66.9190
   -66.7543 -66.7541 -66.7389 -66.7381 -66.7194 -66.7183 -66.7166 -66.7159
   -66.7116 -66.7108 -66.7082 -66.7078 -66.6809 -66.6499 -66.6420 -66.6413
   -66.6339 -66.6170 -66.6008 -66.5974 -66.5959 -66.5932 -66.5911 -66.5887
   -38.8101 -38.8091 -38.7869 -38.7846 -38.6825 -38.6794 -38.6772 -38.6752
   -38.6537 -38.6502 -38.6471 -38.6463 -38.6139 -38.6127 -38.5883 -38.5841
   -38.5523 -38.5478 -38.5423 -38.5404 -38.5364 -38.5328 -38.5156 -38.5131
   -38.4774 -38.4764 -38.4651 -38.4637 -38.4117 -38.4095 -38.3865 -38.3857
   -38.3799 -38.3792 -38.3713 -38.3708 -38.3605 -38.3585 -38.3487 -38.3478
   -38.3430 -38.3425 -38.3377 -38.3328 -38.3214 -38.3206 -38.3020 -38.2872
   -38.2865 -38.2860 -38.2829 -38.2826 -38.2818 -38.2781 -38.2758 -38.2684
   -38.2655 -38.2639 -38.2631 -38.2543 -38.2521 -38.2515 -38.2317 -38.2290
   -38.2234 -38.2120 -38.2111 -38.2066 -38.2014 -38.1998 -38.1989 -38.1967
   -38.1880 -38.1847 -38.1808 -38.1806 -38.1583 -38.1549 -38.1506 -38.1488
   -38.1461 -38.1458 -38.1329 -38.1323 -38.1299 -38.1190 -38.1133 -38.1058
   -38.0968 -38.0962 -38.0796 -38.0745 -38.0724 -38.0688 -38.0635 -38.0615
   -38.0555 -38.0523 -38.0421 -38.0377 -38.0348 -38.0306 -38.0132 -38.0101
   -38.0014 -37.9974 -37.9863 -37.9854 -37.9754 -37.9742 -37.9654 -37.9594
   -37.9578 -37.9545 -37.9516 -37.9489 -37.9375 -37.9341 -37.9310 -37.9296
   -37.9219 -37.9217 -37.9210 -37.9204 -37.8863 -37.8860 -37.8824 -37.8817
   -37.8724 -37.8711 -37.8626 -37.8623 -37.8454 -37.8300 -37.8261 -37.8256
   -37.7165 -37.7068 -37.7060 -37.6980 -37.6909 -37.6877 -37.6821 -37.6736
   -12.2794 -12.2775 -11.9071 -11.9050 -11.8938 -11.8902 -11.6625 -11.6581
   -11.4912 -11.4885 -11.3656 -11.3643 -11.3551 -11.3484 -11.3280 -11.3264
   -11.1477 -11.1430 -11.1257 -11.1254  -8.7303  -8.7303  -8.6957  -8.6957
    -8.6075  -2.9570  -2.9515  -2.8607  -2.8585  -2.7951  -2.7928  -2.7909
    -2.7876  -2.6668  -2.6659  -2.5508  -2.5484  -2.3917  -2.3833  -2.3245
    -2.3174  -2.2721  -2.2628  -2.1467  -2.1385  -2.0593  -2.0543  -1.8626
    -1.8606  -1.7427  -1.7199  -1.6883  -1.6748  -1.6006  -1.5855  -1.4848
    -1.4683  -1.4619  -1.4546  -1.3561  -1.3443  -1.2856  -1.2819  -1.2749
    -1.2661  -1.2375  -1.1931  -1.1492  -1.1278  -1.0696  -1.0667  -1.0472
    -1.0404  -0.9224  -0.9132  -0.8754  -0.8672  -0.8562  -0.8472  -0.7517
    -0.7471  -0.7158  -0.6871  -0.6854  -0.6404  -0.6360  -0.5029  -0.5008
     1.0036   1.0063   1.1897   1.1902   1.4194   1.4215   1.4414   1.4418
     1.5172   1.5174   1.5335   1.5339   1.6739   1.6765   1.6841   1.6904
     1.9098   1.9146   1.9181   1.9194   2.0910   2.0936   2.1279   2.1311
     2.2198   2.2220   2.3530   2.3548   2.3765   2.3775   2.4086   2.4095
     2.4473   2.4495   2.4583   2.4625   2.5668   2.5723   2.7405   2.7427
     2.7920   2.7967   2.8146   2.8182   3.0081   3.0135   3.0301   3.0322
     3.1018   3.1028   3.1965   3.2049   3.3197   3.3228   3.3811   3.3830
     3.4149   3.4176   3.5129   3.5145   3.6059   3.6189   3.6618   3.6649
     3.7254   3.7315   3.8046   3.8114   3.8595   3.8641   3.8986   3.9034
     3.9316   3.9372   3.9609   3.9809   3.9940   4.0006   4.1193   4.1341
     4.1448   4.1556   4.2671   4.2741   4.2789   4.3093   4.3173   4.3412
     4.3499   4.3537   4.3613   4.3782   4.4343   4.4533   4.4648   4.4705
     4.4711   4.4889   4.5938   4.6019   4.6083   4.6323   4.6718   4.6742
     4.6907   4.6922   4.8066   4.8253   4.9775   4.9819   4.9860   4.9879
     4.9919   5.0209   5.0538   5.0771   5.1082   5.1135   5.1283   5.1332
     5.1769   5.1834   5.2583   5.3080   5.3354   5.3385   5.3487   5.3519
     5.4285   5.4323   5.4565   5.4929   5.5145   5.5183   5.5579   5.5665
     5.5725   5.5778   5.5931   5.6610   5.6953   5.7026   5.7362   5.7405
     5.7521   5.7554   5.7619   5.7834   5.8307   5.8414   5.8663   5.8687
     5.8752   5.8924   5.9070   5.9095   5.9477   5.9778   5.9967   5.9995
     6.0293   6.0496   6.0651   6.1014   6.1433   6.1559   6.1613   6.1685
     6.1691   6.1814   6.1866   6.1938   6.2027   6.2080   6.3327   6.3366
     6.3402   6.3512   6.3834   6.3848   6.4176   6.4248   6.4381   6.4432
     6.4557   6.4655   6.4902   6.4911   6.6029   6.6092   6.6162   6.6189
     6.6479   6.6548   6.7052   6.7086   6.8414   6.8498   6.8515   6.8623

          k =-0.2500 0.4330 0.0000 (108308 PWs)   bands (ev):

   -67.0080 -66.9961 -66.9957 -66.9721 -66.9641 -66.9602 -66.9545 -66.9521
   -66.9518 -66.9494 -66.9488 -66.9430 -66.9428 -66.9396 -66.9378 -66.9363
   -66.9327 -66.9270 -66.9248 -66.9243 -66.9219 -66.9216 -66.9199 -66.9191
   -66.7566 -66.7478 -66.7476 -66.7311 -66.7244 -66.7182 -66.7151 -66.7147
   -66.7113 -66.7105 -66.7088 -66.7080 -66.6808 -66.6504 -66.6439 -66.6382
   -66.6342 -66.6176 -66.5992 -66.5988 -66.5961 -66.5931 -66.5917 -66.5881
   -38.8121 -38.8011 -38.7993 -38.7780 -38.6825 -38.6822 -38.6762 -38.6718
   -38.6571 -38.6507 -38.6460 -38.6448 -38.6145 -38.6052 -38.6048 -38.5654
   -38.5593 -38.5478 -38.5472 -38.5418 -38.5401 -38.5236 -38.5207 -38.5079
   -38.4741 -38.4724 -38.4714 -38.4606 -38.4365 -38.3896 -38.3887 -38.3880
   -38.3793 -38.3766 -38.3677 -38.3649 -38.3633 -38.3578 -38.3576 -38.3489
   -38.3427 -38.3371 -38.3353 -38.3338 -38.3188 -38.3121 -38.3106 -38.3020
   -38.2880 -38.2870 -38.2837 -38.2799 -38.2766 -38.2735 -38.2695 -38.2690
   -38.2670 -38.2656 -38.2602 -38.2554 -38.2522 -38.2510 -38.2494 -38.2230
   -38.2171 -38.2126 -38.2114 -38.2055 -38.2029 -38.2006 -38.1969 -38.1928
   -38.1911 -38.1839 -38.1831 -38.1807 -38.1584 -38.1523 -38.1505 -38.1463
   -38.1424 -38.1418 -38.1395 -38.1354 -38.1293 -38.1285 -38.1102 -38.1015
   -38.0971 -38.0962 -38.0785 -38.0774 -38.0744 -38.0697 -38.0677 -38.0613
   -38.0533 -38.0451 -38.0421 -38.0381 -38.0339 -38.0215 -38.0204 -38.0143
   -38.0017 -37.9914 -37.9888 -37.9846 -37.9766 -37.9711 -37.9667 -37.9634
   -37.9605 -37.9547 -37.9537 -37.9475 -37.9353 -37.9326 -37.9316 -37.9282
   -37.9262 -37.9242 -37.9166 -37.9159 -37.8911 -37.8901 -37.8791 -37.8780
   -37.8764 -37.8671 -37.8667 -37.8592 -37.8455 -37.8300 -37.8264 -37.8253
   -37.7140 -37.7128 -37.7020 -37.6992 -37.6907 -37.6847 -37.6838 -37.6743
   -12.3352 -12.1226 -12.1209 -11.9284 -11.7953 -11.7917 -11.7443 -11.5774
   -11.5512 -11.4413 -11.4225 -11.4207 -11.4056 -11.3408 -11.2316 -11.2265
   -11.2063 -11.2051 -11.1177 -11.0978  -8.7390  -8.7115  -8.7115  -8.6900
    -8.6075  -3.0056  -2.9068  -2.9033  -2.8872  -2.7769  -2.7738  -2.7338
    -2.6980  -2.6469  -2.6340  -2.6119  -2.6088  -2.5655  -2.3755  -2.2467
    -2.2369  -2.2264  -2.2079  -2.1520  -2.1465  -2.1089  -2.1020  -1.9765
    -1.8197  -1.7977  -1.7224  -1.6931  -1.6034  -1.5557  -1.5466  -1.4677
    -1.4460  -1.4316  -1.4215  -1.4086  -1.3879  -1.3848  -1.3276  -1.2411
    -1.2183  -1.2043  -1.1720  -1.1593  -1.1462  -1.1294  -1.0911  -0.9774
    -0.9549  -0.9499  -0.9021  -0.8861  -0.8687  -0.8499  -0.8252  -0.8140
    -0.7770  -0.7715  -0.7127  -0.6779  -0.5810  -0.5709  -0.5669  -0.4732
     0.9377   1.1213   1.1226   1.2225   1.4067   1.4228   1.4242   1.4258
     1.4693   1.5506   1.5511   1.5780   1.6434   1.6617   1.6642   1.7201
     1.8381   1.9575   1.9582   2.0460   2.0475   2.1098   2.1122   2.1691
     2.1762   2.2365   2.2382   2.2703   2.3451   2.3502   2.3854   2.3859
     2.4364   2.4860   2.5525   2.5793   2.5810   2.6612   2.6646   2.7786
     2.7830   2.7853   2.8186   2.8232   2.9204   2.9248   2.9261   2.9910
     3.1732   3.2354   3.2811   3.2847   3.3268   3.3285   3.3342   3.4214
     3.4238   3.4263   3.4431   3.5511   3.5706   3.5730   3.6367   3.6983
     3.7085   3.7448   3.7502   3.7770   3.7812   3.8387   3.8613   3.8755
     4.0145   4.0205   4.0429   4.0568   4.0609   4.0676   4.0754   4.1101
     4.1500   4.1621   4.1937   4.2273   4.2356   4.2881   4.2945   4.3173
     4.3467   4.3564   4.3847   4.3927   4.4225   4.4303   4.4539   4.4639
     4.5502   4.5542   4.5786   4.5859   4.5915   4.5988   4.6359   4.6672
     4.7225   4.8528   4.8539   4.8711   4.8765   4.8877   4.8997   4.9038
     4.9472   4.9824   5.0336   5.0608   5.1128   5.1388   5.1550   5.1612
[...]
     6.5945   6.6382   6.6660   6.6675   6.6770   6.7361   6.7910   6.7928

          k = 0.5000-0.0000 0.0000 (108308 PWs)   bands (ev):

   -67.0691 -67.0575 -67.0573 -67.0344 -67.0267 -67.0187 -67.0178 -67.0130
   -67.0129 -67.0103 -67.0100 -67.0074 -67.0073 -67.0043 -67.0031 -66.9940
   -66.9895 -66.9836 -66.9808 -66.9804 -66.9775 -66.9772 -66.9754 -66.9750
   -66.8265 -66.8185 -66.8184 -66.8075 -66.7812 -66.7767 -66.7760 -66.7757
   -66.7710 -66.7708 -66.7703 -66.7683 -66.7217 -66.7148 -66.7124 -66.7043
   -66.6733 -66.6704 -66.6658 -66.6643 -66.6611 -66.6610 -66.6592 -66.6576
   -38.8614 -38.8490 -38.8486 -38.8278 -38.7351 -38.7348 -38.7288 -38.7234
   -38.7119 -38.7084 -38.7074 -38.7072 -38.6735 -38.6607 -38.6606 -38.6235
   -38.6193 -38.6125 -38.6123 -38.6090 -38.5977 -38.5942 -38.5935 -38.5891
   -38.5329 -38.5322 -38.5320 -38.5261 -38.5174 -38.5097 -38.5088 -38.5085
   -38.4955 -38.4358 -38.4327 -38.4313 -38.4310 -38.4185 -38.4182 -38.4067
   -38.4043 -38.4004 -38.4001 -38.3951 -38.3797 -38.3713 -38.3708 -38.3669
   -38.3667 -38.3626 -38.3596 -38.3573 -38.3474 -38.3472 -38.3411 -38.3393
   -38.3317 -38.3307 -38.3253 -38.3154 -38.3146 -38.3105 -38.3100 -38.2816
   -38.2812 -38.2787 -38.2771 -38.2769 -38.2663 -38.2658 -38.2623 -38.2485
   -38.2466 -38.2450 -38.2447 -38.2423 -38.2209 -38.2147 -38.2142 -38.2061
   -38.2047 -38.2029 -38.2028 -38.1961 -38.1917 -38.1706 -38.1701 -38.1686
   -38.1441 -38.1411 -38.1342 -38.1332 -38.1287 -38.1274 -38.1244 -38.1242
   -38.1026 -38.0960 -38.0907 -38.0885 -38.0877 -38.0742 -38.0732 -38.0730
   -38.0565 -38.0416 -38.0397 -38.0375 -38.0265 -38.0262 -38.0192 -38.0184
   -38.0134 -38.0126 -38.0114 -38.0007 -37.9965 -37.9931 -37.9928 -37.9914
   -37.9894 -37.9885 -37.9834 -37.9832 -37.9451 -37.9448 -37.9392 -37.9338
   -37.9317 -37.9229 -37.9227 -37.9149 -37.9010 -37.8966 -37.8958 -37.8952
   -37.7714 -37.7701 -37.7672 -37.7581 -37.7546 -37.7448 -37.7442 -37.7378
   -12.3489 -12.1350 -12.1339 -11.9486 -11.8061 -11.8045 -11.7660 -11.6045
   -11.5231 -11.4639 -11.4431 -11.4428 -11.3804 -11.3708 -11.2582 -11.2539
   -11.1656 -11.1647 -11.1462 -11.0478  -9.3287  -9.2797  -9.2789  -9.2397
    -7.0901  -3.0271  -2.9226  -2.9224  -2.9031  -2.7888  -2.7878  -2.7384
    -2.7105  -2.6525  -2.6489  -2.6183  -2.6178  -2.5694  -2.3945  -2.2535
    -2.2464  -2.2457  -2.1973  -2.1599  -2.1588  -2.1120  -2.1111  -1.9838
    -1.7986  -1.7967  -1.7196  -1.6969  -1.6281  -1.5585  -1.5575  -1.4884
    -1.4401  -1.4346  -1.4079  -1.4070  -1.4027  -1.3917  -1.3293  -1.2129
    -1.2113  -1.1689  -1.1670  -1.1354  -1.0886  -0.9868  -0.9759  -0.9756
    -0.9209  -0.9094  -0.8843  -0.8703  -0.8570  -0.8547  -0.7614  -0.7578
    -0.6893  -0.5824  -0.5671  -0.5648  -0.4243   0.4317   0.4769   0.4959
     0.6760   0.7313   0.7325   0.7699   0.9662   0.9692   1.0141   1.0171
     1.0174   1.0758   1.0821   1.0828   1.2794   1.4185   1.4207   1.6207
     1.7763   1.8845   1.8848   1.9154   1.9860   1.9890   2.0003   2.0010
     2.0877   2.1678   2.1693   2.2369   2.3107   2.3113   2.3446   2.3458
     2.3860   2.4457   2.5014   2.5140   2.5159   2.6044   2.6051   2.6607
     2.7305   2.7321   2.7435   2.7686   2.8444   2.8460   2.8621   2.9491
     3.0910   3.1786   3.2241   3.2270   3.2709   3.2728   3.2916   3.3650
     3.3721   3.3735   3.3840   3.4754   3.4769   3.4903   3.5780   3.6432
     3.6484   3.6791   3.6837   3.7115   3.7151   3.7815   3.7838   3.7973
     3.9640   3.9645   3.9705   3.9936   3.9966   4.0111   4.0127   4.0463
     4.0746   4.1295   4.1448   4.1604   4.1619   4.2260   4.2297   4.2319
     4.2677   4.2714   4.3168   4.3432   4.3654   4.3678   4.3861   4.3893
     4.4817   4.4833   4.5059   4.5203   4.5269   4.5295   4.5447   4.5941
     4.6234   4.7669   4.7842   4.7876   4.8243   4.8282   4.8508   4.8619
     4.8905   4.9593   4.9745   4.9809   5.0586   5.0636   5.1016   5.1189
     5.1210   5.1861   5.2248   5.2507   5.2711   5.2751   5.3071   5.3549
     5.3715   5.3722   5.3780   5.4132   5.4243   5.4469   5.4491   5.5305
     5.5322   5.5389   5.5646   5.6592   5.6655   5.6664   5.6674   5.6801
     5.7114   5.7131   5.7143   5.7310   5.7467   5.7978   5.8000   5.8021
     5.8092   5.8222   5.8413   5.8577   5.8587   5.8960   5.9206   5.9679
     5.9696   5.9861   6.0058   6.0110   6.0360   6.0370   6.0556   6.1223
     6.1231   6.1390   6.1674   6.1688   6.1982   6.2278   6.2341   6.2507
     6.2868   6.2899   6.2966   6.3047   6.3906   6.4018   6.4037   6.4468
     6.4501   6.4510   6.4964   6.4971   6.5376   6.5767   6.5901   6.5935
     6.5942   6.6376   6.6656   6.6679   6.6772   6.7359   6.7909   6.7928

     the Fermi energy is     5.1281 ev

!    total energy              =  -12616.46661224 Ry
     total all-electron energy =   -103594.970419 Ry
     estimated scf accuracy    <          9.3E-11 Ry
     smearing contrib. (-TS)   =       0.00929546 Ry
     internal energy E=F+TS    =  -12616.47590770 Ry

     The total energy is F=E-TS. E is the sum of the following terms:
     one-electron contribution =  -66979.69664315 Ry
     hartree contribution      =   33601.76219885 Ry
     xc contribution           =   -1216.03221175 Ry
     ewald contribution        =   25739.85263422 Ry
     DFT-D3 Dispersion         =      -1.07956174 Ry
     one-center paw contrib.   =   -3761.28232412 Ry

     convergence has been achieved in  42 iterations

     negative rho (up, down):  1.669E-04 0.000E+00

     Forces acting on atoms (cartesian axes, Ry/au):

     atom    1 type  1   force =     0.00009379    0.00019630   -0.00017939
     atom    2 type  1   force =     0.00011710    0.00018359   -0.00017386
     atom    3 type  1   force =    -0.00004295    0.00003449   -0.00025340
     atom    4 type  1   force =     0.00004786    0.00003284    0.00032030
     atom    5 type  1   force =    -0.00007939   -0.00021974   -0.00005711
     atom    6 type  1   force =    -0.00017901   -0.00015452   -0.00002171
     atom    7 type  2   force =    -0.00002572   -0.00005184   -0.00035070
     atom    8 type  2   force =     0.00003904   -0.00006647    0.00028502
     atom    9 type  2   force =    -0.00012750    0.00007071    0.00017931
     atom   10 type  1   force =    -0.00026928   -0.00023720   -0.00003423
     atom   11 type  1   force =     0.00001387   -0.00047013    0.00007845
     atom   12 type  1   force =    -0.00007045   -0.00007573    0.00021458
     atom   13 type  1   force =     0.00009491    0.00008279    0.00035375
     atom   14 type  1   force =    -0.00002603    0.00029818   -0.00058192
     atom   15 type  1   force =     0.00032302    0.00015153   -0.00051774
     atom   16 type  2   force =     0.00007117    0.00005602   -0.00041418
     atom   17 type  2   force =     0.00015229   -0.00023923    0.00013846
     atom   18 type  2   force =    -0.00013020   -0.00000091    0.00000625
     atom   19 type  1   force =    -0.00014149   -0.00024520   -0.00004180
     atom   20 type  1   force =     0.00013347    0.00002481    0.00004955
     atom   21 type  1   force =     0.00022683    0.00001421   -0.00001890
     atom   22 type  1   force =    -0.00001050    0.00026119   -0.00005661
     atom   23 type  1   force =     0.00022877    0.00000870    0.00012570
     atom   24 type  1   force =    -0.00014446    0.00009708   -0.00012831
     atom   25 type  2   force =     0.00001185    0.00014648   -0.00021612
     atom   26 type  2   force =    -0.00000702    0.00005742    0.00018048
     atom   27 type  2   force =     0.00005565    0.00006255    0.00069917
     atom   28 type  1   force =     0.00000546    0.00037868   -0.00000702
     atom   29 type  1   force =    -0.00005313    0.00004501    0.00045582
     atom   30 type  1   force =    -0.00026316    0.00008692    0.00004179
     atom   31 type  1   force =    -0.00010265   -0.00010019   -0.00030707
     atom   32 type  1   force =    -0.00005473    0.00000515   -0.00032195
     atom   33 type  1   force =     0.00009391   -0.00001581   -0.00022212
     atom   34 type  2   force =    -0.00003447    0.00001589   -0.00034289
     atom   35 type  2   force =    -0.00013834   -0.00002619    0.00001083
     atom   36 type  2   force =    -0.00014209   -0.00007378   -0.00025862
     atom   37 type  1   force =    -0.00011672    0.00017256    0.00011924
     atom   38 type  1   force =    -0.00015442   -0.00020595   -0.00007940
     atom   39 type  1   force =    -0.00010135    0.00015465   -0.00001056
     atom   40 type  1   force =     0.00011452    0.00016024    0.00000485
     atom   41 type  1   force =     0.00008103    0.00001026   -0.00002224
     atom   42 type  1   force =    -0.00017266    0.00026393    0.00003648
     atom   43 type  2   force =    -0.00002073    0.00024972   -0.00022090
     atom   44 type  2   force =    -0.00001729    0.00010554    0.00064635
     atom   45 type  2   force =     0.00001026    0.00004808    0.00036597
     atom   46 type  1   force =     0.00023846   -0.00007698    0.00033524
     atom   47 type  1   force =     0.00049544    0.00028842    0.00008099
     atom   48 type  1   force =     0.00032292   -0.00026824    0.00005417
     atom   49 type  1   force =    -0.00001771   -0.00010021   -0.00033509
     atom   50 type  1   force =    -0.00003913    0.00005474   -0.00020803
     atom   51 type  1   force =     0.00002352    0.00001752   -0.00036685
     atom   52 type  2   force =     0.00003089   -0.00010359   -0.00035102
     atom   53 type  2   force =     0.00009353   -0.00014767   -0.00031201
     atom   54 type  2   force =     0.00026152   -0.00020249   -0.00001778
     atom   55 type  1   force =     0.00007756   -0.00013366   -0.00013021
     atom   56 type  1   force =    -0.00019853    0.00001988   -0.00000042
     atom   57 type  1   force =    -0.00027396   -0.00032605   -0.00043035
     atom   58 type  1   force =     0.00010590    0.00016556   -0.00008486
     atom   59 type  1   force =    -0.00008490   -0.00015730   -0.00009862
     atom   60 type  1   force =    -0.00007105   -0.00015924   -0.00000594
     atom   61 type  2   force =    -0.00004924   -0.00020208    0.00007220
     atom   62 type  2   force =    -0.00002353   -0.00006903    0.00006559
     atom   63 type  2   force =    -0.00009893   -0.00000857   -0.00007568
     atom   64 type  1   force =    -0.00033584   -0.00002351    0.00062156
     atom   65 type  1   force =     0.00002194   -0.00025480    0.00075030
     atom   66 type  1   force =    -0.00008195   -0.00010690   -0.00009858
     atom   67 type  1   force =    -0.00000825    0.00016263    0.00002062
     atom   68 type  1   force =    -0.00019405    0.00041482   -0.00000692
     atom   69 type  1   force =     0.00039112   -0.00003960   -0.00007651
     atom   70 type  2   force =     0.00002245    0.00019385    0.00036528
     atom   71 type  2   force =     0.00030891   -0.00010758    0.00008506
     atom   72 type  2   force =    -0.00024167    0.00035607    0.00026992
     atom   73 type  3   force =    -0.00013893    0.00009912    0.00010489
     atom   74 type  4   force =     0.00035651   -0.00051177    0.00043074
     atom   75 type  4   force =    -0.00014868    0.00051987    0.00056744
     atom   76 type  4   force =     0.00032061   -0.00055783   -0.00016412
     atom   77 type  4   force =    -0.00035398   -0.00002800   -0.00053462

     Total force =     0.003383     Total SCF correction =     0.000057
     Energy error            =      3.3E-05 Ry
     Gradient error          =      7.5E-04 Ry/Bohr

     bfgs converged in  38 scf cycles and  37 bfgs steps
     (criteria: energy <  1.0E-04 Ry, force <  1.0E-03 Ry/Bohr)

     End of BFGS Geometry Optimization

     Final energy             =  -12616.4666122389 Ry

     File tmp/CH4-H22_Rot90_bridge_/CH4-H22_Rot90_bridge_.bfgs deleted, as requested
Begin final coordinates

ATOMIC_POSITIONS (angstrom)
Cr              -1.5998252081        2.7739737939        8.1628195674
Cr               3.1885304474        0.0097060588        8.1618461919
Cr               0.7771782551        1.3596994194        8.1631435822
Cr               1.6267179240        2.8337644182        6.0310162646
Cr              -0.7487080719        1.3015570312        6.0332252547
Cr               1.4882935110        0.0098887494        6.0321920389
N               -0.0040228434        0.0091957179        4.9917768971
N                2.3721180708        1.3816970004        7.0173581117
N               -0.0025835101        2.7521041819        7.0194144019
Cr              -1.6499903909        2.8654651552       12.4360441100
Cr               3.2918173728        0.0123957828       12.4358970568
Cr               0.7216909668        1.2679143916       12.4312995742
Cr               1.5910339502        2.7717235125       10.3582762153
Cr              -0.7864829459        1.3610527968       10.3598153589
Cr               1.5580512903        0.0083668106       10.3602081392
N               -0.0025563033        0.0109370293        9.2472204868
N                2.3710204442        1.3827505907       11.4798515939
N               -0.0033911987        2.7528064914       11.4780265805
Cr              -3.9740964852        6.8912524045        8.1626624596
Cr               0.8133757041        4.1236133953        8.1617847083
Cr              -1.6011842190        5.4744912837        8.1623716467
Cr              -0.7484034581        6.9461011033        6.0336581769
Cr              -3.1253202408        5.4153968404        6.0326716662
Cr              -0.8873460667        4.1240600517        6.0340033943
N               -2.3786600027        4.1236596944        4.9911941182
N               -0.0032844548        5.4955344328        7.0210356991
N               -2.3790814189        6.8676121234        7.0171021171
Cr              -4.0264563588        6.9734516398       12.4376854106
Cr               0.9072576941        4.1268748418       12.4342335550
Cr              -1.6485359019        5.3871152513       12.4373421623
Cr              -0.7870878212        6.8885249592       10.3576231631
Cr              -3.1577096018        5.4790010571       10.3575011964
Cr              -0.8171522133        4.1248896025       10.3576481923
N               -2.3792140874        4.1241226523        9.2468698002
N               -0.0037842905        5.4982380432       11.4761581827
N               -2.3790898457        6.8684356978       11.4817129711
Cr               3.1518854454        2.7739213845        8.1604495555
Cr               7.9415344996        0.0118104136        8.1634411437
Cr               5.5272650163        1.3593304500        8.1617491067
Cr               6.3780052127        2.8321765063        6.0326253446
Cr               4.0027807648        1.3000012908        6.0321041989
Cr               6.2402970720        0.0078346030        6.0338441385
N                4.7492120761        0.0070329807        4.9913066161
N                7.1236501707        1.3809779875        7.0179639645
N                4.7478056817        2.7525951224        7.0176416307
Cr               3.1030639344        2.8599876296       12.4382323162
Cr               8.0360776493        0.0077470643       12.4370447930
Cr               5.4747297632        1.2745548936       12.4375824674
Cr               6.3428451512        2.7713198138       10.3583726569
Cr               3.9661243453        1.3637234670       10.3583661774
Cr               6.3092436131        0.0137326764       10.3573107877
N                4.7464959603        0.0113817419        9.2468927776
N                7.1227024225        1.3827798357       11.4814764001
N                4.7466239289        2.7545015804       11.4790783563
Cr               0.7751867760        6.8897312537        8.1644644265
Cr               5.5653642099        4.1234032199        8.1625882250
Cr               3.1533061009        5.4749378725        8.1642055396
Cr               4.0019663958        6.9474182860        6.0349758282
Cr               1.6272378549        5.4175175891        6.0352207425
Cr               3.8642594261        4.1259681749        6.0332861654
N                2.3728213360        4.1275287558        4.9909887316
N                4.7488895243        5.4964388778        7.0213035049
N                2.3729078918        6.8679859496        7.0235143095
Cr               0.7257238138        6.9789501150       12.4323648484
Cr               5.6687293191        4.1259930053       12.4325472374
Cr               3.1056027866        5.3970767359       12.4311805000
Cr               3.9673299598        6.8864677013       10.3565295960
Cr               1.5906231354        5.4754501097       10.3561260137
Cr               3.9323892768        4.1235659304       10.3579516173
N                2.3722231779        4.1227818285        9.2439507502
N                4.7486552099        5.4959439789       11.4746169755
N                2.3710094438        6.8686290754       11.4721524782
C                2.0614068508        3.3372806023       16.1148109269
H                1.8646776582        4.2777008270       16.6425131228
H                1.9852295152        2.4903066790       16.8064010954
H                1.3221134438        3.2135584340       15.3113151815
H                3.0690735041        3.3665398600       15.6807424657
End final coordinates



     Writing all to output data dir tmp/CH4-H22_Rot90_bridge_/CH4-H22_Rot90_bridge_.save/ :
     XML data file, charge density, pseudopotentials, collected wavefunctions
 
     init_run     :     18.41s CPU     19.45s WALL (       1 calls)
     electrons    :  65173.76s CPU  66945.84s WALL (      38 calls)
     update_pot   :     46.82s CPU     48.95s WALL (      37 calls)
     forces       :    394.46s CPU    408.95s WALL (      38 calls)
     force_dftd3  :      8.22s CPU      8.73s WALL (      38 calls)

     Called by init_run:
     wfcinit      :     14.15s CPU     14.76s WALL (       1 calls)
     potinit      :      1.04s CPU      1.18s WALL (       1 calls)
     hinit0       :      0.35s CPU      0.44s WALL (       1 calls)

     Called by electrons:
     c_bands      :  53664.66s CPU  54797.45s WALL (    1617 calls)
     sum_band     :   9085.42s CPU   9413.55s WALL (    1617 calls)
     v_of_rho     :    934.61s CPU   1004.99s WALL (    1648 calls)
     newd         :    709.60s CPU    918.51s WALL (    1648 calls)
     PAW_pot      :    602.74s CPU    611.10s WALL (    1685 calls)
     mix_rho      :    131.73s CPU    142.14s WALL (    1617 calls)
     energy_dftd3 :      4.42s CPU      4.44s WALL (      38 calls)

     Called by c_bands:
     init_us_2    :    915.61s CPU    928.18s WALL (    9930 calls)
     cegterg      :  50551.43s CPU  51654.93s WALL (    4851 calls)

     Called by *egterg:
     cdiaghg      :   1782.58s CPU   1804.34s WALL (   16662 calls)
     h_psi        :  24877.37s CPU  25362.99s WALL (   16797 calls)
     s_psi        :   5865.25s CPU   5926.18s WALL (   16797 calls)
     g_psi        :    110.72s CPU    112.11s WALL (   11943 calls)

     Called by h_psi:
     h_psi:calbec :   5936.58s CPU   5999.11s WALL (   16797 calls)
     vloc_psi     :  12862.41s CPU  13082.77s WALL (   16797 calls)
                                        0.00s GPU  (   16797 calls)
     add_vuspsi   :   5884.45s CPU   5948.09s WALL (   16797 calls)

     General routines
     calbec       :   8990.04s CPU   9082.62s WALL (   22215 calls)
     fft          :    735.14s CPU    798.88s WALL (   21810 calls)
     ffts         :      9.55s CPU     11.01s WALL (    3265 calls)
     fftw         :  12657.03s CPU  12864.03s WALL (12201908 calls)
     interpolate  :     53.70s CPU     59.81s WALL (    1648 calls)
 
     Parallel routines
 
     PWSCF        :     18h15m CPU     18h45m WALL

 
   This run was terminated on:  19: 1: 7   4Jun2026            

=------------------------------------------------------------------------------=
   JOB DONE.
=------------------------------------------------------------------------------=
