
     Program PWSCF v.7.5 starts on  8Jun2026 at 20:42:31 

     This program is part of the open-source Quantum ESPRESSO suite
     for quantum simulation of materials; please cite
         "P. Giannozzi et al., J. Phys.:Condens. Matter 21 395502 (2009);
         "P. Giannozzi et al., J. Phys.:Condens. Matter 29 465901 (2017);
         "P. Giannozzi et al., J. Chem. Phys. 152 154105 (2020);
          URL http://www.quantum-espresso.org", 
     in publications or presentations arising from this work. More details at
     http://www.quantum-espresso.org/quote

     Parallel version (MPI & OpenMP), running on      64 processor cores
     Number of MPI processes:                64
     Threads/MPI process:                     1

     MPI processes distributed on     1 nodes
     993712 MiB available memory on the printing compute node when the environment starts
 
     Reading input from generated_inputs/adsorcion/pw-CH4-H22_Rot45_ontop_.in
Warning: card &CELL ignored

     Current dimensions of program PWSCF are:
     Max number of different atomic species (ntypx) = 10
     Max number of k-points (npk) =  40000
     Max angular momentum in pseudopotentials (lmaxx) =  4
     file Cr.pbe-spn-kjpaw_psl.1.0.0.UPF: wavefunction(s)  3S 3P 3D renormalized
     file N.pbe-n-kjpaw_psl.1.0.0.UPF: wavefunction(s)  2S renormalized
     file C.pbe-n-kjpaw_psl.1.0.0.UPF: wavefunction(s)  2S 2P renormalized
     file H.pbe-kjpaw_psl.1.0.0.UPF: wavefunction(s)  1S renormalized
 
     K-points division:     npool     =       4
     R & G space division:  proc/nbgrp/npool/nimage =      16
     Subspace diagonalization in iterative solution of the eigenvalue problem:
     one sub-group per band group will be used
     scalapack distributed-memory algorithm (size of sub-group:  4*  4 procs)

 
     Parallelization info
     --------------------
     sticks:   dense  smooth     PW     G-vecs:    dense   smooth      PW
     Min        1166     388    104               281408    54158    7640
     Max        1167     389    105               281417    54165    7647
     Sum       18661    6217   1675              4502593   866593  122299
 
     Using Slab Decomposition
 


     bravais-lattice index     =            0
     lattice parameter (alat)  =      17.9576  a.u.
     unit-cell volume          =   10952.5767 (a.u.)^3
     number of atoms/cell      =           77
     number of atomic types    =            4
     number of electrons       =       800.00
     number of Kohn-Sham states=          480
     kinetic-energy cutoff     =      70.0000  Ry
     charge density cutoff     =     840.0000  Ry
     scf convergence threshold =      1.0E-08
     mixing beta               =       0.2000
     number of iterations used =            8  plain     mixing
     energy convergence thresh.=      1.0E-04
     force convergence thresh. =      1.0E-03
     Exchange-correlation= SLA  PW   PBX  PBC
                           (   1   4   3   4   0   0   0)
     nstep                     =          200


     celldm(1)=  17.957575  celldm(2)=   0.000000  celldm(3)=   0.000000
     celldm(4)=   0.000000  celldm(5)=   0.000000  celldm(6)=   0.000000

     crystal axes: (cart. coord. in units of alat)
               a(1) = (   1.000000   0.000000   0.000000 )  
               a(2) = (  -0.500000   0.866025   0.000000 )  
               a(3) = (   0.000000   0.000000   2.183951 )  

     reciprocal axes: (cart. coord. in units 2 pi/alat)
               b(1) = (  1.000000  0.577351  0.000000 )  
               b(2) = (  0.000000  1.154701  0.000000 )  
               b(3) = (  0.000000  0.000000  0.457886 )  


     PseudoPot. # 1 for Cr read from file:
     pseudo/Cr.pbe-spn-kjpaw_psl.1.0.0.UPF
     MD5 check sum: 198f1a2427a48552563eee314eba32ba
     Pseudo is Projector augmented-wave + core cor, Zval = 14.0
     Generated using &quot;atomic&quot; code by A. Dal Corso  v.6.3
     Shape of augmentation charge: PSQ
     Using radial grid of 1183 points,  6 beta functions with: 
                l(1) =   0
                l(2) =   0
                l(3) =   1
                l(4) =   1
                l(5) =   2
                l(6) =   2
     Q(r) pseudized with 0 coefficients 


     PseudoPot. # 2 for N  read from file:
     pseudo/N.pbe-n-kjpaw_psl.1.0.0.UPF
     MD5 check sum: 14c48229446f9f2d411169a3abcbc3fa
     Pseudo is Projector augmented-wave + core cor, Zval =  5.0
     Generated using &quot;atomic&quot; code by A. Dal Corso  v.6.3
     Shape of augmentation charge: PSQ
     Using radial grid of 1085 points,  4 beta functions with: 
                l(1) =   0
                l(2) =   0
                l(3) =   1
                l(4) =   1
     Q(r) pseudized with 0 coefficients 


     PseudoPot. # 3 for C  read from file:
     pseudo/C.pbe-n-kjpaw_psl.1.0.0.UPF
     MD5 check sum: 5f16ad9a65e90284d1d834d4ab3b0f7d
     Pseudo is Projector augmented-wave + core cor, Zval =  4.0
     Generated using &quot;atomic&quot; code by A. Dal Corso  v.6.3
     Shape of augmentation charge: PSQ
     Using radial grid of 1073 points,  4 beta functions with: 
                l(1) =   0
                l(2) =   0
                l(3) =   1
                l(4) =   1
     Q(r) pseudized with 0 coefficients 


     PseudoPot. # 4 for H  read from file:
     pseudo/H.pbe-kjpaw_psl.1.0.0.UPF
     MD5 check sum: d81a744832360e4a8af0b0b5b123bc2a
     Pseudo is Projector augmented-wave, Zval =  1.0
     Generated using &quot;atomic&quot; code by A. Dal Corso  v.6.3MaX
     Shape of augmentation charge: PSQ
     Using radial grid of  929 points,  2 beta functions with: 
                l(1) =   0
                l(2) =   0
     Q(r) pseudized with 0 coefficients 


     atomic species   valence    mass     pseudopotential
     Cr               14.00    51.99610     Cr( 1.00)
     N                 5.00    14.00670     N ( 1.00)
     C                 4.00    12.01100     C ( 1.00)
     H                 1.00     1.00800     H ( 1.00)

     No symmetry found



   Cartesian axes

     site n.     atom                  positions (alat units)
         1        Cr     tau(   1) = (  -0.1681591   0.2912601   0.8673998  )
         2        Cr     tau(   2) = (   0.3363182   0.0000000   0.8673998  )
         3        Cr     tau(   3) = (   0.0818405   0.1417518   0.8673993  )
         4        Cr     tau(   4) = (   0.1684970   0.2918454   0.6425759  )
         5        Cr     tau(   5) = (  -0.0815030   0.1411673   0.6425759  )
         6        Cr     tau(   6) = (   0.1630059   0.0000000   0.6425759  )
         7        N      tau(   7) = (   0.0000000   0.0000000   0.5261641  )
         8        N      tau(   8) = (   0.2500000   0.1443376   0.7485579  )
         9        N      tau(   9) = (   0.0000000   0.2886752   0.7485579  )
        10        Cr     tau(  10) = (  -0.1730001   0.2996450   1.3148727  )
        11        Cr     tau(  11) = (   0.3460003   0.0000000   1.3148727  )
        12        Cr     tau(  12) = (   0.0770029   0.1333729   1.3148745  )
        13        Cr     tau(  13) = (   0.1677092   0.2904808   1.0968932  )
        14        Cr     tau(  14) = (  -0.0822901   0.1425306   1.0968938  )
        15        Cr     tau(  15) = (   0.1645802   0.0000000   1.0968938  )
        16        N      tau(  16) = (   0.0000000   0.0000000   0.9808490  )
        17        N      tau(  17) = (   0.2500004   0.1443372   1.2145625  )
        18        N      tau(  18) = (  -0.0000005   0.2886753   1.2145625  )
        19        Cr     tau(  19) = (  -0.4181595   0.7242736   0.8673993  )
        20        Cr     tau(  20) = (   0.0863184   0.4330126   0.8674001  )
        21        Cr     tau(  21) = (  -0.1681593   0.5747652   0.8674001  )
        22        Cr     tau(  22) = (  -0.0815030   0.7248581   0.6425759  )
        23        Cr     tau(  23) = (  -0.3315030   0.5741800   0.6425759  )
        24        Cr     tau(  24) = (  -0.0869941   0.4330127   0.6425759  )
        25        N      tau(  25) = (  -0.2500000   0.4330127   0.5261641  )
        26        N      tau(  26) = (   0.0000000   0.5773503   0.7485581  )
        27        N      tau(  27) = (  -0.2500000   0.7216878   0.7485579  )
        28        Cr     tau(  28) = (  -0.4229971   0.7326525   1.3148745  )
        29        Cr     tau(  29) = (   0.0959968   0.4330121   1.3148749  )
        30        Cr     tau(  30) = (  -0.1729989   0.5663837   1.3148749  )
        31        Cr     tau(  31) = (  -0.0822898   0.7234940   1.0968932  )
        32        Cr     tau(  32) = (  -0.3322908   0.5755446   1.0968932  )
        33        Cr     tau(  33) = (  -0.0854193   0.4330133   1.0968932  )
        34        N      tau(  34) = (  -0.2500001   0.4330128   0.9808490  )
        35        N      tau(  35) = (   0.0000000   0.5773503   1.2145635  )
        36        N      tau(  36) = (  -0.2499996   0.7216882   1.2145625  )
        37        Cr     tau(  37) = (   0.3318407   0.2912602   0.8674001  )
        38        Cr     tau(  38) = (   0.8363191   0.0000000   0.8673993  )
        39        Cr     tau(  39) = (   0.5818409   0.1417524   0.8674001  )
        40        Cr     tau(  40) = (   0.6684970   0.2918454   0.6425759  )
        41        Cr     tau(  41) = (   0.4184970   0.1411673   0.6425759  )
        42        Cr     tau(  42) = (   0.6630059   0.0000000   0.6425759  )
        43        N      tau(  43) = (   0.5000000   0.0000000   0.5261641  )
        44        N      tau(  44) = (   0.7500000   0.1443376   0.7485579  )
        45        N      tau(  45) = (   0.5000000   0.2886751   0.7485581  )
        46        Cr     tau(  46) = (   0.3270011   0.2996417   1.3148749  )
        47        Cr     tau(  47) = (   0.8459942   0.0000000   1.3148745  )
        48        Cr     tau(  48) = (   0.5770021   0.1333704   1.3148749  )
        49        Cr     tau(  49) = (   0.6677091   0.2904819   1.0968932  )
        50        Cr     tau(  50) = (   0.4177102   0.1425314   1.0968932  )
        51        Cr     tau(  51) = (   0.6645817   0.0000000   1.0968932  )
        52        N      tau(  52) = (   0.5000001   0.0000000   0.9808490  )
        53        N      tau(  53) = (   0.7500001   0.1443381   1.2145625  )
        54        N      tau(  54) = (   0.5000000   0.2886751   1.2145635  )
        55        Cr     tau(  55) = (   0.0818409   0.7242730   0.8674001  )
        56        Cr     tau(  56) = (   0.5863184   0.4330128   0.8674001  )
        57        Cr     tau(  57) = (   0.3318409   0.5747653   0.8673998  )
        58        Cr     tau(  58) = (   0.4184970   0.7248581   0.6425759  )
        59        Cr     tau(  59) = (   0.1684970   0.5741800   0.6425759  )
        60        Cr     tau(  60) = (   0.4130059   0.4330127   0.6425759  )
        61        N      tau(  61) = (   0.2500000   0.4330127   0.5261641  )
        62        N      tau(  62) = (   0.5000000   0.5773502   0.7485579  )
        63        N      tau(  63) = (   0.2500000   0.7216878   0.7485579  )
        64        Cr     tau(  64) = (   0.0770021   0.7326550   1.3148749  )
        65        Cr     tau(  65) = (   0.5959968   0.4330133   1.3148749  )
        66        Cr     tau(  66) = (   0.3269999   0.5663804   1.3148727  )
        67        Cr     tau(  67) = (   0.4177099   0.7234948   1.0968938  )
        68        Cr     tau(  68) = (   0.1677091   0.5755435   1.0968932  )
        69        Cr     tau(  69) = (   0.4145807   0.4330121   1.0968932  )
        70        N      tau(  70) = (   0.2499999   0.4330126   0.9808490  )
        71        N      tau(  71) = (   0.4999995   0.5773501   1.2145625  )
        72        N      tau(  72) = (   0.2500001   0.7216873   1.2145625  )
        73        C      tau(  73) = (   0.0959968   0.4330121   1.5915635  )
        74        H      tau(  74) = (   0.0959968   0.5266656   1.6577865  )
        75        H      tau(  75) = (   0.0959968   0.3393586   1.6577865  )
        76        H      tau(  76) = (   0.0023433   0.4330121   1.5253405  )
        77        H      tau(  77) = (   0.1896503   0.4330121   1.5253405  )

     --------------------------------------------
     DFT-D3 Dispersion Correction (3-body terms):
     --------------------------------------------
       Reference C6 values for interpolation: 

         atom   Coordination number   C6
         H          0.912             6.05
         H          0.000            15.18
         C          0.000            98.23
         C          0.987            86.49
         C          1.998            58.72
         C          2.999            51.56
         C          3.984            36.41
         N          0.000            50.54
         N          0.994            44.25
         N          2.014            39.35
         N          2.990            31.16
         Cr         0.000          1381.48
         Cr         1.827           571.38
         Cr        10.619           306.69

       Values used:

         atom   Coordination number  R0_AB[au]  C6      C8
         Cr        12.627            3.252    306.69  28303.74
         Cr        12.627            3.252    306.69  28303.74
         Cr        12.627            3.252    306.69  28303.74
         Cr        10.143            3.252    306.69  28303.74
         Cr        10.143            3.252    306.69  28303.74
         Cr        10.143            3.252    306.69  28303.74
         N          3.022            2.478     31.29    690.36
         N          6.023            2.478     31.16    687.49
         N          6.023            2.478     31.16    687.49
         Cr         9.078            3.252    306.69  28303.74
         Cr         9.071            3.252    306.69  28303.74
         Cr         9.075            3.252    306.69  28303.74
         Cr        12.748            3.252    306.69  28303.74
         Cr        12.748            3.252    306.69  28303.74
         Cr        12.748            3.252    306.69  28303.74
         N          6.047            2.478     31.16    687.49
         N          6.032            2.478     31.16    687.49
         N          6.033            2.478     31.16    687.49
         Cr        12.627            3.252    306.69  28303.74
         Cr        12.627            3.252    306.69  28303.74
         Cr        12.627            3.252    306.69  28303.74
         Cr        10.143            3.252    306.69  28303.74
         Cr        10.143            3.252    306.69  28303.74
         Cr        10.143            3.252    306.69  28303.74
         N          3.022            2.478     31.29    690.36
         N          6.023            2.478     31.16    687.49
         N          6.023            2.478     31.16    687.49
         Cr         9.071            3.252    306.69  28303.74
         Cr         9.550            3.252    306.69  28303.74
         Cr         9.078            3.252    306.69  28303.74
         Cr        12.748            3.252    306.69  28303.74
         Cr        12.748            3.252    306.69  28303.74
         Cr        12.748            3.252    306.69  28303.74
         N          6.047            2.478     31.16    687.49
         N          6.033            2.478     31.16    687.49
         N          6.032            2.478     31.16    687.49
         Cr        12.627            3.252    306.69  28303.74
         Cr        12.627            3.252    306.69  28303.74
         Cr        12.627            3.252    306.69  28303.74
         Cr        10.143            3.252    306.69  28303.74
         Cr        10.143            3.252    306.69  28303.74
         Cr        10.143            3.252    306.69  28303.74
         N          3.022            2.478     31.29    690.36
         N          6.023            2.478     31.16    687.49
         N          6.023            2.478     31.16    687.49
         Cr         9.085            3.252    306.69  28303.74
         Cr         9.071            3.252    306.69  28303.74
         Cr         9.071            3.252    306.69  28303.74
         Cr        12.748            3.252    306.69  28303.74
         Cr        12.748            3.252    306.69  28303.74
         Cr        12.748            3.252    306.69  28303.74
         N          6.047            2.478     31.16    687.49
         N          6.032            2.478     31.16    687.49
         N          6.032            2.478     31.16    687.49
         Cr        12.627            3.252    306.69  28303.74
         Cr        12.627            3.252    306.69  28303.74
         Cr        12.627            3.252    306.69  28303.74
         Cr        10.143            3.252    306.69  28303.74
         Cr        10.143            3.252    306.69  28303.74
         Cr        10.143            3.252    306.69  28303.74
         N          3.022            2.478     31.29    690.36
         N          6.023            2.478     31.16    687.49
         N          6.023            2.478     31.16    687.49
         Cr         9.075            3.252    306.69  28303.74
         Cr         9.071            3.252    306.69  28303.74
         Cr         9.085            3.252    306.69  28303.74
         Cr        12.748            3.252    306.69  28303.74
         Cr        12.748            3.252    306.69  28303.74
         Cr        12.748            3.252    306.69  28303.74
         N          6.047            2.478     31.16    687.49
         N          6.032            2.478     31.16    687.49
         N          6.032            2.478     31.16    687.49
         C          4.273            2.750     36.44   1053.95
         H          0.997            2.062      6.18     74.75
         H          0.997            2.062      6.18     74.75
         H          1.109            2.062      6.11     73.88
         H          1.117            2.062      6.11     73.84

         Molecular C6 ( Ry / a.u.^6 ) =    974422.04


     number of k points=    10  Methfessel-Paxton smearing, width (Ry)=  0.0200
                       cart. coord. in units 2pi/alat
        k(    1) = (   0.0000000   0.0000000   0.0000000), wk =   0.1250000
        k(    2) = (   0.0000000   0.2886753   0.0000000), wk =   0.2500000
        k(    3) = (   0.0000000  -0.5773505   0.0000000), wk =   0.1250000
        k(    4) = (   0.2500000   0.1443376   0.0000000), wk =   0.2500000
        k(    5) = (   0.2500000   0.4330129   0.0000000), wk =   0.2500000
        k(    6) = (   0.2500000  -0.4330129   0.0000000), wk =   0.2500000
        k(    7) = (   0.2500000  -0.1443376   0.0000000), wk =   0.2500000
        k(    8) = (  -0.5000000  -0.2886753   0.0000000), wk =   0.1250000
        k(    9) = (  -0.5000000   0.0000000   0.0000000), wk =   0.2500000
        k(   10) = (  -0.5000000  -0.8660258   0.0000000), wk =   0.1250000

     Dense  grid:  4502593 G-vectors     FFT dimensions: ( 180, 180, 375)

     Smooth grid:   866593 G-vectors     FFT dimensions: (  96,  96, 216)

     Estimated max dynamical RAM per process >     867.27 MB

     Estimated total dynamical RAM >      50.98 GB

     Initial potential from superposition of free atoms

     starting charge     799.9627, renormalised to     800.0000

     negative rho (up, down):  3.832E-04 0.000E+00
     Starting wfcs are  584 randomized atomic wfcs
     Checking if some PAW data can be deallocated... 

     total cpu time spent up to now is       19.5 secs

     Self-consistent Calculation

     iteration #  1     ecut=    70.00 Ry     beta= 0.20
     Davidson diagonalization with overlap
     ethr =  1.00E-02,  avg # of iterations =  2.7

     negative rho (up, down):  1.509E-04 0.000E+00

     total cpu time spent up to now is       65.3 secs

     total energy              =  -12610.66042765 Ry
     estimated scf accuracy    <      29.15313476 Ry

     iteration #  2     ecut=    70.00 Ry     beta= 0.20
     Davidson diagonalization with overlap
     ethr =  3.64E-03,  avg # of iterations =  6.3

     negative rho (up, down):  4.516E-04 0.000E+00

     total cpu time spent up to now is      120.1 secs

     total energy              =  -12600.31764708 Ry
     estimated scf accuracy    <     664.06337452 Ry

     iteration #  3     ecut=    70.00 Ry     beta= 0.20
     Davidson diagonalization with overlap
     ethr =  3.64E-03,  avg # of iterations =  2.9

     negative rho (up, down):  6.619E-04 0.000E+00

     total cpu time spent up to now is      161.5 secs

     total energy              =  -12608.90777301 Ry
     estimated scf accuracy    <     483.60821932 Ry

     iteration #  4     ecut=    70.00 Ry     beta= 0.20
     Davidson diagonalization with overlap
     ethr =  3.64E-03,  avg # of iterations =  1.9

     negative rho (up, down):  3.266E-04 0.000E+00

     total cpu time spent up to now is      201.7 secs

     total energy              =  -12614.81119420 Ry
     estimated scf accuracy    <      88.17866465 Ry

     iteration #  5     ecut=    70.00 Ry     beta= 0.20
     Davidson diagonalization with overlap
     ethr =  3.64E-03,  avg # of iterations =  1.4

     negative rho (up, down):  3.943E-04 0.000E+00

     total cpu time spent up to now is      240.2 secs

     total energy              =  -12615.50526513 Ry
     estimated scf accuracy    <      17.99011945 Ry

     iteration #  6     ecut=    70.00 Ry     beta= 0.20
     Davidson diagonalization with overlap
     ethr =  2.25E-03,  avg # of iterations =  1.6

     negative rho (up, down):  4.771E-04 0.000E+00

     total cpu time spent up to now is      279.6 secs

     total energy              =  -12616.19125567 Ry
     estimated scf accuracy    <       3.28156800 Ry

     iteration #  7     ecut=    70.00 Ry     beta= 0.20
     Davidson diagonalization with overlap
     ethr =  4.10E-04,  avg # of iterations = 13.6

     negative rho (up, down):  4.748E-04 0.000E+00

     total cpu time spent up to now is      331.7 secs

     total energy              =  -12616.36063448 Ry
     estimated scf accuracy    <       2.12626722 Ry

     iteration #  8     ecut=    70.00 Ry     beta= 0.20
     Davidson diagonalization with overlap
     ethr =  2.66E-04,  avg # of iterations =  1.9

     negative rho (up, down):  4.963E-04 0.000E+00

     total cpu time spent up to now is      371.6 secs

     total energy              =  -12616.38230288 Ry
     estimated scf accuracy    <       0.74418711 Ry

     iteration #  9     ecut=    70.00 Ry     beta= 0.20
     Davidson diagonalization with overlap
     ethr =  9.30E-05,  avg # of iterations =  6.7

     negative rho (up, down):  4.209E-04 0.000E+00

     total cpu time spent up to now is      419.0 secs

     total energy              =  -12616.37624921 Ry
     estimated scf accuracy    <       0.73901479 Ry

     iteration # 10     ecut=    70.00 Ry     beta= 0.20
     Davidson diagonalization with overlap
     ethr =  9.24E-05,  avg # of iterations =  2.7

     negative rho (up, down):  3.727E-04 0.000E+00

     total cpu time spent up to now is      459.6 secs

     total energy              =  -12616.37124898 Ry
     estimated scf accuracy    <       0.67779465 Ry

     iteration # 11     ecut=    70.00 Ry     beta= 0.20
     Davidson diagonalization with overlap
     ethr =  8.47E-05,  avg # of iterations =  1.9

     negative rho (up, down):  3.903E-04 0.000E+00

     total cpu time spent up to now is      499.9 secs

     total energy              =  -12616.38764555 Ry
     estimated scf accuracy    <       0.20598972 Ry

     iteration # 12     ecut=    70.00 Ry     beta= 0.20
     Davidson diagonalization with overlap
     ethr =  2.57E-05,  avg # of iterations = 14.1

     negative rho (up, down):  2.768E-04 0.000E+00

     total cpu time spent up to now is      556.0 secs

     total energy              =  -12616.38148959 Ry
     estimated scf accuracy    <       0.56586509 Ry

     iteration # 13     ecut=    70.00 Ry     beta= 0.20
     Davidson diagonalization with overlap
     ethr =  2.57E-05,  avg # of iterations =  1.0

     negative rho (up, down):  2.428E-04 0.000E+00

     total cpu time spent up to now is      591.3 secs

     total energy              =  -12616.39105279 Ry
     estimated scf accuracy    <       0.11581013 Ry

     iteration # 14     ecut=    70.00 Ry     beta= 0.20
     Davidson diagonalization with overlap
     ethr =  1.45E-05,  avg # of iterations =  1.2

     negative rho (up, down):  2.118E-04 0.000E+00

     total cpu time spent up to now is      628.1 secs

     total energy              =  -12616.39168572 Ry
     estimated scf accuracy    <       0.04624822 Ry

     iteration # 15     ecut=    70.00 Ry     beta= 0.20
     Davidson diagonalization with overlap
     ethr =  5.78E-06,  avg # of iterations =  2.3

     negative rho (up, down):  1.959E-04 0.000E+00

     total cpu time spent up to now is      668.5 secs

     total energy              =  -12616.39059244 Ry
     estimated scf accuracy    <       0.18065033 Ry

     iteration # 16     ecut=    70.00 Ry     beta= 0.20
     Davidson diagonalization with overlap
     ethr =  5.78E-06,  avg # of iterations =  1.0

     negative rho (up, down):  1.955E-04 0.000E+00

     total cpu time spent up to now is      703.9 secs

     total energy              =  -12616.39277229 Ry
     estimated scf accuracy    <       0.03611773 Ry

     iteration # 17     ecut=    70.00 Ry     beta= 0.20
     Davidson diagonalization with overlap
     ethr =  4.51E-06,  avg # of iterations =  1.8

     negative rho (up, down):  1.984E-04 0.000E+00

     total cpu time spent up to now is      743.4 secs

     total energy              =  -12616.39247403 Ry
     estimated scf accuracy    <       0.07071346 Ry

     iteration # 18     ecut=    70.00 Ry     beta= 0.20
     Davidson diagonalization with overlap
     ethr =  4.51E-06,  avg # of iterations =  1.0

     negative rho (up, down):  1.998E-04 0.000E+00

     total cpu time spent up to now is      778.8 secs

     total energy              =  -12616.39358778 Ry
     estimated scf accuracy    <       0.04796136 Ry

     iteration # 19     ecut=    70.00 Ry     beta= 0.20
     Davidson diagonalization with overlap
     ethr =  4.51E-06,  avg # of iterations =  1.0

     negative rho (up, down):  2.011E-04 0.000E+00

     total cpu time spent up to now is      814.1 secs

     total energy              =  -12616.39426632 Ry
     estimated scf accuracy    <       0.01216740 Ry

     iteration # 20     ecut=    70.00 Ry     beta= 0.20
     Davidson diagonalization with overlap
     ethr =  1.52E-06,  avg # of iterations =  1.7

     negative rho (up, down):  2.033E-04 0.000E+00

     total cpu time spent up to now is      853.4 secs

     total energy              =  -12616.39429304 Ry
     estimated scf accuracy    <       0.01395657 Ry

     iteration # 21     ecut=    70.00 Ry     beta= 0.20
     Davidson diagonalization with overlap
     ethr =  1.52E-06,  avg # of iterations =  1.1

     negative rho (up, down):  2.071E-04 0.000E+00

     total cpu time spent up to now is      890.0 secs

     total energy              =  -12616.39465235 Ry
     estimated scf accuracy    <       0.00396911 Ry

     iteration # 22     ecut=    70.00 Ry     beta= 0.20
     Davidson diagonalization with overlap
     ethr =  4.96E-07,  avg # of iterations =  1.8

     negative rho (up, down):  2.072E-04 0.000E+00

     total cpu time spent up to now is      929.9 secs

     total energy              =  -12616.39451583 Ry
     estimated scf accuracy    <       0.01255059 Ry

     iteration # 23     ecut=    70.00 Ry     beta= 0.20
     Davidson diagonalization with overlap
     ethr =  4.96E-07,  avg # of iterations =  1.9

     negative rho (up, down):  2.096E-04 0.000E+00

     total cpu time spent up to now is      969.8 secs

     total energy              =  -12616.39479686 Ry
     estimated scf accuracy    <       0.00397745 Ry

     iteration # 24     ecut=    70.00 Ry     beta= 0.20
     Davidson diagonalization with overlap
     ethr =  4.96E-07,  avg # of iterations =  1.0

     negative rho (up, down):  2.107E-04 0.000E+00

     total cpu time spent up to now is     1005.2 secs

     total energy              =  -12616.39484595 Ry
     estimated scf accuracy    <       0.00302348 Ry

     iteration # 25     ecut=    70.00 Ry     beta= 0.20
     Davidson diagonalization with overlap
     ethr =  3.78E-07,  avg # of iterations =  1.1

     negative rho (up, down):  2.108E-04 0.000E+00

     total cpu time spent up to now is     1041.4 secs

     total energy              =  -12616.39474117 Ry
     estimated scf accuracy    <       0.00771150 Ry

     iteration # 26     ecut=    70.00 Ry     beta= 0.20
     Davidson diagonalization with overlap
     ethr =  3.78E-07,  avg # of iterations =  1.0

     negative rho (up, down):  2.115E-04 0.000E+00

     total cpu time spent up to now is     1076.8 secs

     total energy              =  -12616.39486471 Ry
     estimated scf accuracy    <       0.00365012 Ry

     iteration # 27     ecut=    70.00 Ry     beta= 0.20
     Davidson diagonalization with overlap
     ethr =  3.78E-07,  avg # of iterations =  1.0

     negative rho (up, down):  2.121E-04 0.000E+00

     total cpu time spent up to now is     1111.9 secs

     total energy              =  -12616.39487544 Ry
     estimated scf accuracy    <       0.00526818 Ry

     iteration # 28     ecut=    70.00 Ry     beta= 0.20
     Davidson diagonalization with overlap
     ethr =  3.78E-07,  avg # of iterations =  1.0

     negative rho (up, down):  2.127E-04 0.000E+00

     total cpu time spent up to now is     1147.4 secs

     total energy              =  -12616.39490011 Ry
     estimated scf accuracy    <       0.00331168 Ry

     iteration # 29     ecut=    70.00 Ry     beta= 0.20
     Davidson diagonalization with overlap
     ethr =  3.78E-07,  avg # of iterations =  1.0

     negative rho (up, down):  2.129E-04 0.000E+00

     total cpu time spent up to now is     1182.6 secs

     total energy              =  -12616.39496190 Ry
     estimated scf accuracy    <       0.00080729 Ry

     iteration # 30     ecut=    70.00 Ry     beta= 0.20
     Davidson diagonalization with overlap
     ethr =  1.01E-07,  avg # of iterations =  1.0

     negative rho (up, down):  2.133E-04 0.000E+00

     total cpu time spent up to now is     1218.0 secs

     total energy              =  -12616.39496151 Ry
     estimated scf accuracy    <       0.00068413 Ry

     iteration # 31     ecut=    70.00 Ry     beta= 0.20
     Davidson diagonalization with overlap
     ethr =  8.55E-08,  avg # of iterations =  1.0

     negative rho (up, down):  2.128E-04 0.000E+00

     total cpu time spent up to now is     1253.3 secs

     total energy              =  -12616.39499240 Ry
     estimated scf accuracy    <       0.00041619 Ry

     iteration # 32     ecut=    70.00 Ry     beta= 0.20
     Davidson diagonalization with overlap
     ethr =  5.20E-08,  avg # of iterations =  1.0

     negative rho (up, down):  2.133E-04 0.000E+00

     total cpu time spent up to now is     1288.7 secs

     total energy              =  -12616.39497796 Ry
     estimated scf accuracy    <       0.00059373 Ry

     iteration # 33     ecut=    70.00 Ry     beta= 0.20
     Davidson diagonalization with overlap
     ethr =  5.20E-08,  avg # of iterations =  1.0

     negative rho (up, down):  2.131E-04 0.000E+00

     total cpu time spent up to now is     1324.1 secs

     total energy              =  -12616.39499380 Ry
     estimated scf accuracy    <       0.00039164 Ry

     iteration # 34     ecut=    70.00 Ry     beta= 0.20
     Davidson diagonalization with overlap
     ethr =  4.90E-08,  avg # of iterations =  1.0

     negative rho (up, down):  2.130E-04 0.000E+00

     total cpu time spent up to now is     1359.4 secs

     total energy              =  -12616.39500345 Ry
     estimated scf accuracy    <       0.00020375 Ry

     iteration # 35     ecut=    70.00 Ry     beta= 0.20
     Davidson diagonalization with overlap
     ethr =  2.55E-08,  avg # of iterations =  1.0

     negative rho (up, down):  2.130E-04 0.000E+00

     total cpu time spent up to now is     1394.8 secs

     total energy              =  -12616.39499674 Ry
     estimated scf accuracy    <       0.00051489 Ry

     iteration # 36     ecut=    70.00 Ry     beta= 0.20
     Davidson diagonalization with overlap
     ethr =  2.55E-08,  avg # of iterations =  1.7

     negative rho (up, down):  2.130E-04 0.000E+00

     total cpu time spent up to now is     1434.2 secs

     total energy              =  -12616.39499405 Ry
     estimated scf accuracy    <       0.00085177 Ry

     iteration # 37     ecut=    70.00 Ry     beta= 0.20
     Davidson diagonalization with overlap
     ethr =  2.55E-08,  avg # of iterations =  1.0

     negative rho (up, down):  2.130E-04 0.000E+00

     total cpu time spent up to now is     1469.6 secs

     total energy              =  -12616.39500606 Ry
     estimated scf accuracy    <       0.00060899 Ry

     iteration # 38     ecut=    70.00 Ry     beta= 0.20
     Davidson diagonalization with overlap
     ethr =  2.55E-08,  avg # of iterations =  1.0

     negative rho (up, down):  2.131E-04 0.000E+00

     total cpu time spent up to now is     1505.1 secs

     total energy              =  -12616.39500388 Ry
     estimated scf accuracy    <       0.00033568 Ry

     iteration # 39     ecut=    70.00 Ry     beta= 0.20
     Davidson diagonalization with overlap
     ethr =  2.55E-08,  avg # of iterations =  1.0

     negative rho (up, down):  2.131E-04 0.000E+00

     total cpu time spent up to now is     1540.4 secs

     total energy              =  -12616.39501102 Ry
     estimated scf accuracy    <       0.00026970 Ry

     iteration # 40     ecut=    70.00 Ry     beta= 0.20
     Davidson diagonalization with overlap
     ethr =  2.55E-08,  avg # of iterations =  1.0

     negative rho (up, down):  2.131E-04 0.000E+00

     total cpu time spent up to now is     1575.9 secs

     total energy              =  -12616.39501068 Ry
     estimated scf accuracy    <       0.00016359 Ry

     iteration # 41     ecut=    70.00 Ry     beta= 0.20
     Davidson diagonalization with overlap
     ethr =  2.04E-08,  avg # of iterations =  1.0

     negative rho (up, down):  2.131E-04 0.000E+00

     total cpu time spent up to now is     1611.1 secs

     total energy              =  -12616.39501466 Ry
     estimated scf accuracy    <       0.00021352 Ry

     iteration # 42     ecut=    70.00 Ry     beta= 0.20
     Davidson diagonalization with overlap
     ethr =  2.04E-08,  avg # of iterations =  1.0

     negative rho (up, down):  2.132E-04 0.000E+00

     total cpu time spent up to now is     1646.6 secs

     total energy              =  -12616.39501660 Ry
     estimated scf accuracy    <       0.00008443 Ry

     iteration # 43     ecut=    70.00 Ry     beta= 0.20
     Davidson diagonalization with overlap
     ethr =  1.06E-08,  avg # of iterations =  1.0

     negative rho (up, down):  2.132E-04 0.000E+00

     total cpu time spent up to now is     1681.7 secs

     total energy              =  -12616.39501639 Ry
     estimated scf accuracy    <       0.00011333 Ry

     iteration # 44     ecut=    70.00 Ry     beta= 0.20
     Davidson diagonalization with overlap
     ethr =  1.06E-08,  avg # of iterations =  1.0

     negative rho (up, down):  2.132E-04 0.000E+00

     total cpu time spent up to now is     1717.2 secs

     total energy              =  -12616.39501967 Ry
     estimated scf accuracy    <       0.00003232 Ry

     iteration # 45     ecut=    70.00 Ry     beta= 0.20
     Davidson diagonalization with overlap
     ethr =  4.04E-09,  avg # of iterations =  1.0

     negative rho (up, down):  2.132E-04 0.000E+00

     total cpu time spent up to now is     1752.4 secs

     total energy              =  -12616.39502110 Ry
     estimated scf accuracy    <       0.00004728 Ry

     iteration # 46     ecut=    70.00 Ry     beta= 0.20
     Davidson diagonalization with overlap
     ethr =  4.04E-09,  avg # of iterations =  1.0

     negative rho (up, down):  2.132E-04 0.000E+00

     total cpu time spent up to now is     1787.7 secs

     total energy              =  -12616.39501975 Ry
     estimated scf accuracy    <       0.00006954 Ry

     iteration # 47     ecut=    70.00 Ry     beta= 0.20
     Davidson diagonalization with overlap
     ethr =  4.04E-09,  avg # of iterations =  1.0

     negative rho (up, down):  2.133E-04 0.000E+00

     total cpu time spent up to now is     1823.0 secs

     total energy              =  -12616.39502133 Ry
     estimated scf accuracy    <       0.00005066 Ry

     iteration # 48     ecut=    70.00 Ry     beta= 0.20
     Davidson diagonalization with overlap
     ethr =  4.04E-09,  avg # of iterations =  1.0

     negative rho (up, down):  2.132E-04 0.000E+00

     total cpu time spent up to now is     1858.4 secs

     total energy              =  -12616.39502089 Ry
     estimated scf accuracy    <       0.00002244 Ry

     iteration # 49     ecut=    70.00 Ry     beta= 0.20
     Davidson diagonalization with overlap
     ethr =  2.80E-09,  avg # of iterations =  1.0

     negative rho (up, down):  2.133E-04 0.000E+00

     total cpu time spent up to now is     1893.6 secs

     total energy              =  -12616.39502128 Ry
     estimated scf accuracy    <       0.00009291 Ry

     iteration # 50     ecut=    70.00 Ry     beta= 0.20
     Davidson diagonalization with overlap
     ethr =  2.80E-09,  avg # of iterations =  1.0

     negative rho (up, down):  2.135E-04 0.000E+00

     total cpu time spent up to now is     1928.9 secs

     total energy              =  -12616.39502231 Ry
     estimated scf accuracy    <       0.00003603 Ry

     iteration # 51     ecut=    70.00 Ry     beta= 0.20
     Davidson diagonalization with overlap
     ethr =  2.80E-09,  avg # of iterations =  1.0

     negative rho (up, down):  2.133E-04 0.000E+00

     total cpu time spent up to now is     1964.1 secs

     total energy              =  -12616.39502182 Ry
     estimated scf accuracy    <       0.00003292 Ry

     iteration # 52     ecut=    70.00 Ry     beta= 0.20
     Davidson diagonalization with overlap
     ethr =  2.80E-09,  avg # of iterations =  1.0

     negative rho (up, down):  2.134E-04 0.000E+00

     total cpu time spent up to now is     1999.5 secs

     total energy              =  -12616.39502306 Ry
     estimated scf accuracy    <       0.00001238 Ry

     iteration # 53     ecut=    70.00 Ry     beta= 0.20
     Davidson diagonalization with overlap
     ethr =  1.55E-09,  avg # of iterations =  1.0

     negative rho (up, down):  2.134E-04 0.000E+00

     total cpu time spent up to now is     2034.9 secs

     total energy              =  -12616.39502251 Ry
     estimated scf accuracy    <       0.00001977 Ry

     iteration # 54     ecut=    70.00 Ry     beta= 0.20
     Davidson diagonalization with overlap
     ethr =  1.55E-09,  avg # of iterations =  1.0

     negative rho (up, down):  2.134E-04 0.000E+00

     total cpu time spent up to now is     2070.2 secs

     total energy              =  -12616.39502288 Ry
     estimated scf accuracy    <       0.00001680 Ry

     iteration # 55     ecut=    70.00 Ry     beta= 0.20
     Davidson diagonalization with overlap
     ethr =  1.55E-09,  avg # of iterations =  1.0

     negative rho (up, down):  2.135E-04 0.000E+00

     total cpu time spent up to now is     2105.6 secs

     total energy              =  -12616.39502338 Ry
     estimated scf accuracy    <       0.00001489 Ry

     iteration # 56     ecut=    70.00 Ry     beta= 0.20
     Davidson diagonalization with overlap
     ethr =  1.55E-09,  avg # of iterations =  1.0

     negative rho (up, down):  2.135E-04 0.000E+00

     total cpu time spent up to now is     2140.9 secs

     total energy              =  -12616.39502332 Ry
     estimated scf accuracy    <       0.00000437 Ry

     iteration # 57     ecut=    70.00 Ry     beta= 0.20
     Davidson diagonalization with overlap
     ethr =  5.47E-10,  avg # of iterations =  1.0

     negative rho (up, down):  2.135E-04 0.000E+00

     total cpu time spent up to now is     2176.3 secs

     total energy              =  -12616.39502334 Ry
     estimated scf accuracy    <       0.00001046 Ry

     iteration # 58     ecut=    70.00 Ry     beta= 0.20
     Davidson diagonalization with overlap
     ethr =  5.47E-10,  avg # of iterations =  1.0

     negative rho (up, down):  2.135E-04 0.000E+00

     total cpu time spent up to now is     2211.6 secs

     total energy              =  -12616.39502351 Ry
     estimated scf accuracy    <       0.00000335 Ry

     iteration # 59     ecut=    70.00 Ry     beta= 0.20
     Davidson diagonalization with overlap
     ethr =  4.19E-10,  avg # of iterations =  1.1

     negative rho (up, down):  2.136E-04 0.000E+00

     total cpu time spent up to now is     2248.2 secs

     total energy              =  -12616.39502347 Ry
     estimated scf accuracy    <       0.00001811 Ry

     iteration # 60     ecut=    70.00 Ry     beta= 0.20
     Davidson diagonalization with overlap
     ethr =  4.19E-10,  avg # of iterations =  1.0

     negative rho (up, down):  2.136E-04 0.000E+00

     total cpu time spent up to now is     2283.5 secs

     total energy              =  -12616.39502369 Ry
     estimated scf accuracy    <       0.00000238 Ry

     iteration # 61     ecut=    70.00 Ry     beta= 0.20
     Davidson diagonalization with overlap
     ethr =  2.97E-10,  avg # of iterations =  1.0

     negative rho (up, down):  2.136E-04 0.000E+00

     total cpu time spent up to now is     2318.8 secs

     total energy              =  -12616.39502364 Ry
     estimated scf accuracy    <       0.00000072 Ry

     iteration # 62     ecut=    70.00 Ry     beta= 0.20
     Davidson diagonalization with overlap
     ethr =  8.98E-11,  avg # of iterations =  2.6

     negative rho (up, down):  2.136E-04 0.000E+00

     total cpu time spent up to now is     2360.0 secs

     total energy              =  -12616.39502364 Ry
     estimated scf accuracy    <       0.00000491 Ry

     iteration # 63     ecut=    70.00 Ry     beta= 0.20
     Davidson diagonalization with overlap
     ethr =  8.98E-11,  avg # of iterations =  1.2

     negative rho (up, down):  2.137E-04 0.000E+00

     total cpu time spent up to now is     2397.8 secs

     total energy              =  -12616.39502376 Ry
     estimated scf accuracy    <       0.00000144 Ry

     iteration # 64     ecut=    70.00 Ry     beta= 0.20
     Davidson diagonalization with overlap
     ethr =  8.98E-11,  avg # of iterations =  1.0

     negative rho (up, down):  2.136E-04 0.000E+00

     total cpu time spent up to now is     2433.1 secs

     total energy              =  -12616.39502376 Ry
     estimated scf accuracy    <       0.00000123 Ry

     iteration # 65     ecut=    70.00 Ry     beta= 0.20
     Davidson diagonalization with overlap
     ethr =  8.98E-11,  avg # of iterations =  1.0

     negative rho (up, down):  2.136E-04 0.000E+00

     total cpu time spent up to now is     2468.5 secs

     total energy              =  -12616.39502376 Ry
     estimated scf accuracy    <       0.00000133 Ry

     iteration # 66     ecut=    70.00 Ry     beta= 0.20
     Davidson diagonalization with overlap
     ethr =  8.98E-11,  avg # of iterations =  1.0

     negative rho (up, down):  2.136E-04 0.000E+00

     total cpu time spent up to now is     2503.9 secs

     total energy              =  -12616.39502379 Ry
     estimated scf accuracy    <       0.00000018 Ry

     iteration # 67     ecut=    70.00 Ry     beta= 0.20
     Davidson diagonalization with overlap
     ethr =  2.28E-11,  avg # of iterations =  1.2

     negative rho (up, down):  2.136E-04 0.000E+00

     total cpu time spent up to now is     2541.4 secs

     total energy              =  -12616.39502377 Ry
     estimated scf accuracy    <       0.00000095 Ry

     iteration # 68     ecut=    70.00 Ry     beta= 0.20
     Davidson diagonalization with overlap
     ethr =  2.28E-11,  avg # of iterations =  1.6

     negative rho (up, down):  2.137E-04 0.000E+00

     total cpu time spent up to now is     2580.5 secs

     total energy              =  -12616.39502379 Ry
     estimated scf accuracy    <       0.00000047 Ry

     iteration # 69     ecut=    70.00 Ry     beta= 0.20
     Davidson diagonalization with overlap
     ethr =  2.28E-11,  avg # of iterations =  1.0

     negative rho (up, down):  2.136E-04 0.000E+00

     total cpu time spent up to now is     2615.9 secs

     total energy              =  -12616.39502379 Ry
     estimated scf accuracy    <       0.00000023 Ry

     iteration # 70     ecut=    70.00 Ry     beta= 0.20
     Davidson diagonalization with overlap
     ethr =  2.28E-11,  avg # of iterations =  1.0

     negative rho (up, down):  2.136E-04 0.000E+00

     total cpu time spent up to now is     2651.1 secs

     total energy              =  -12616.39502380 Ry
     estimated scf accuracy    <       0.00000008 Ry

     iteration # 71     ecut=    70.00 Ry     beta= 0.20
     Davidson diagonalization with overlap
     ethr =  9.64E-12,  avg # of iterations =  1.0

     negative rho (up, down):  2.137E-04 0.000E+00

     total cpu time spent up to now is     2686.6 secs

     total energy              =  -12616.39502380 Ry
     estimated scf accuracy    <       0.00000003 Ry

     iteration # 72     ecut=    70.00 Ry     beta= 0.20
     Davidson diagonalization with overlap
     ethr =  4.11E-12,  avg # of iterations =  1.0

     negative rho (up, down):  2.137E-04 0.000E+00

     total cpu time spent up to now is     2721.7 secs

     total energy              =  -12616.39502380 Ry
     estimated scf accuracy    <       0.00000006 Ry

     iteration # 73     ecut=    70.00 Ry     beta= 0.20
     Davidson diagonalization with overlap
     ethr =  4.11E-12,  avg # of iterations =  1.0

     negative rho (up, down):  2.137E-04 0.000E+00

     total cpu time spent up to now is     2757.2 secs

     total energy              =  -12616.39502380 Ry
     estimated scf accuracy    <       0.00000006 Ry

     iteration # 74     ecut=    70.00 Ry     beta= 0.20
     Davidson diagonalization with overlap
     ethr =  4.11E-12,  avg # of iterations =  1.0

     negative rho (up, down):  2.136E-04 0.000E+00

     total cpu time spent up to now is     2792.2 secs

     End of self-consistent calculation

          k = 0.0000 0.0000 0.0000 (108303 PWs)   bands (ev):

   -67.0370 -66.9975 -66.9963 -66.9961 -66.9886 -66.9879 -66.9874 -66.9851
   -66.9629 -66.9625 -66.9623 -66.9598 -66.9577 -66.9555 -66.9542 -66.9532
   -66.9521 -66.9519 -66.9509 -66.9412 -66.9388 -66.9380 -66.9348 -66.9323
   -66.7850 -66.7560 -66.7555 -66.7553 -66.7489 -66.7486 -66.7484 -66.7322
   -66.7318 -66.7316 -66.7256 -66.7253 -66.6929 -66.6705 -66.6600 -66.6581
   -66.6466 -66.6361 -66.6256 -66.6222 -66.6183 -66.6154 -66.6119 -66.6100
   -38.8413 -38.8150 -38.8129 -38.8119 -38.7122 -38.7115 -38.7104 -38.6728
   -38.6718 -38.6568 -38.6557 -38.6554 -38.6318 -38.6015 -38.5998 -38.5979
   -38.5787 -38.5778 -38.5768 -38.5515 -38.5478 -38.5465 -38.5142 -38.5134
   -38.5088 -38.5086 -38.5076 -38.5003 -38.4261 -38.4167 -38.4087 -38.4086
   -38.4074 -38.4038 -38.4035 -38.4024 -38.4011 -38.4010 -38.3641 -38.3639
   -38.3636 -38.3476 -38.3464 -38.3463 -38.3241 -38.3031 -38.3021 -38.3016
   -38.3002 -38.2994 -38.2993 -38.2986 -38.2985 -38.2829 -38.2810 -38.2809
   -38.2756 -38.2743 -38.2697 -38.2677 -38.2676 -38.2674 -38.2660 -38.2631
   -38.2531 -38.2517 -38.2509 -38.2470 -38.2398 -38.2389 -38.2376 -38.1931
   -38.1877 -38.1862 -38.1856 -38.1806 -38.1798 -38.1789 -38.1754 -38.1745
   -38.1596 -38.1523 -38.1519 -38.1488 -38.1329 -38.1328 -38.1317 -38.1179
   -38.1166 -38.1154 -38.1065 -38.0923 -38.0917 -38.0884 -38.0875 -38.0858
   -38.0767 -38.0752 -38.0692 -38.0676 -38.0672 -38.0411 -38.0408 -38.0405
   -38.0070 -38.0062 -37.9992 -37.9991 -37.9988 -37.9870 -37.9863 -37.9825
   -37.9818 -37.9808 -37.9796 -37.9649 -37.9632 -37.9590 -37.9568 -37.9474
   -37.9465 -37.9373 -37.9367 -37.9360 -37.9036 -37.9033 -37.9027 -37.9020
   -37.9019 -37.9017 -37.8734 -37.8731 -37.8709 -37.8546 -37.8464 -37.8447
   -37.7478 -37.7374 -37.7329 -37.7164 -37.7111 -37.7103 -37.6925 -37.6924
   -12.5384 -12.0690 -11.8358 -11.8350 -11.8343 -11.6913 -11.6870 -11.6839
   -11.6645 -11.6627 -11.6606 -11.3824 -11.3799 -11.3770 -11.3037 -11.2721
   -11.2703 -11.2683 -11.0401 -11.0183  -8.7480  -8.7474  -8.7473  -8.6900
    -8.4128  -3.0411  -3.0386  -3.0377  -2.8268  -2.7971  -2.7963  -2.6026
    -2.6022  -2.6014  -2.5863  -2.5752  -2.5743  -2.5092  -2.4498  -2.4446
    -2.4409  -2.3589  -2.3572  -2.3547  -2.2749  -2.2737  -1.8045  -1.7997
    -1.7966  -1.6259  -1.6188  -1.6174  -1.5583  -1.5328  -1.5238  -1.4707
    -1.4626  -1.4625  -1.4040  -1.3787  -1.3787  -1.3747  -1.3216  -1.3215
    -1.2716  -1.2634  -1.2633  -1.1395  -1.1252  -1.1007  -1.0241  -1.0222
    -0.9588  -0.9552  -0.9416  -0.9369  -0.9213  -0.8944  -0.8646  -0.8596
    -0.8539  -0.7288  -0.7224  -0.7075  -0.4905  -0.4723  -0.4699  -0.4607
     0.6235   1.1884   1.1888   1.1890   1.4313   1.4314   1.4316   1.5095
     1.5250   1.5250   1.5472   1.5473   1.5480   1.5683   1.5684   1.5688
     1.7409   1.7438   1.7440   2.0299   2.0304   2.0322   2.1574   2.1574
     2.1586   2.1894   2.3085   2.3127   2.3144   2.4023   2.4040   2.4076
     2.4164   2.4175   2.4206   2.4786   2.4808   2.4810   2.4982   2.6604
     2.6608   2.7620   2.7638   2.7647   3.1195   3.1198   3.1592   3.2503
     3.2505   3.3141   3.3152   3.3168   3.3287   3.3314   3.3348   3.4514
     3.4523   3.4610   3.4893   3.5168   3.5204   3.6089   3.6331   3.6380
     3.6409   3.6586   3.6587   3.6867   3.6924   3.6945   3.6960   3.7870
     3.7925   3.7968   3.9505   3.9567   4.0008   4.1009   4.1048   4.1087
     4.1241   4.1255   4.2527   4.2602   4.2715   4.2935   4.3301   4.3302
     4.3510   4.3820   4.3840   4.3866   4.3989   4.4576   4.4614   4.4701
     4.5141   4.5147   4.6228   4.6667   4.6668   4.6858   4.7060   4.7508
     4.7531   4.7805   4.8025   4.8057   4.8478   4.8573   4.8596   4.9204
     4.9205   4.9423   4.9811   4.9823   5.0019   5.0922   5.0986   5.1315
     5.1977   5.2014   5.2738   5.3579   5.3585   5.3600   5.4685   5.4707
     5.5120   5.5172   5.5325   5.5338   5.5343   5.5588   5.6616   5.6638
     5.6661   5.6724   5.6755   5.6854   5.6934   5.6943   5.7316   5.7336
     5.7790   5.8097   5.8276   5.8298   5.8323   5.8350   5.8368   5.8597
     5.8780   5.8861   5.9564   5.9597   5.9615   5.9761   5.9792   5.9802
     5.9826   6.0008   6.0338   6.0352   6.0353   6.0820   6.0931   6.1194
     6.1706   6.1723   6.1840   6.1842   6.1869   6.2296   6.2304   6.2362
     6.2378   6.2578   6.2836   6.2859   6.2869   6.3232   6.3311   6.3852
     6.4979   6.5379   6.5384   6.5397   6.5972   6.5983   6.6146   6.6388
     6.6431   6.6807   6.6851   6.6864   6.6936   6.6965   6.7297   6.8011

          k = 0.0000 0.2887 0.0000 (108355 PWs)   bands (ev):

   -67.0335 -67.0095 -67.0006 -66.9994 -66.9834 -66.9824 -66.9813 -66.9755
   -66.9669 -66.9651 -66.9647 -66.9615 -66.9607 -66.9582 -66.9545 -66.9539
   -66.9510 -66.9485 -66.9454 -66.9419 -66.9397 -66.9376 -66.9354 -66.9331
   -66.7824 -66.7646 -66.7582 -66.7576 -66.7448 -66.7445 -66.7405 -66.7339
   -66.7333 -66.7310 -66.7271 -66.7264 -66.6920 -66.6706 -66.6627 -66.6588
   -66.6458 -66.6342 -66.6239 -66.6215 -66.6182 -66.6161 -66.6122 -66.6114
   -38.8380 -38.8183 -38.8093 -38.8088 -38.7078 -38.7061 -38.7051 -38.6806
   -38.6703 -38.6634 -38.6624 -38.6598 -38.6334 -38.6178 -38.6048 -38.6016
   -38.5732 -38.5724 -38.5624 -38.5530 -38.5498 -38.5472 -38.5416 -38.5191
   -38.5030 -38.5022 -38.5005 -38.4795 -38.4191 -38.4182 -38.4138 -38.4099
   -38.4062 -38.4004 -38.3997 -38.3980 -38.3924 -38.3856 -38.3692 -38.3650
   -38.3646 -38.3556 -38.3498 -38.3488 -38.3249 -38.3183 -38.3056 -38.3042
   -38.3038 -38.3025 -38.3022 -38.3020 -38.2963 -38.2902 -38.2884 -38.2855
   -38.2827 -38.2824 -38.2748 -38.2704 -38.2700 -38.2632 -38.2549 -38.2521
   -38.2478 -38.2460 -38.2442 -38.2348 -38.2307 -38.2290 -38.2282 -38.1975
   -38.1938 -38.1923 -38.1905 -38.1902 -38.1831 -38.1788 -38.1779 -38.1659
   -38.1619 -38.1581 -38.1567 -38.1425 -38.1364 -38.1349 -38.1219 -38.1209
   -38.1162 -38.1103 -38.1082 -38.0958 -38.0931 -38.0871 -38.0866 -38.0780
   -38.0764 -38.0684 -38.0651 -38.0634 -38.0623 -38.0468 -38.0457 -38.0431
   -38.0114 -38.0070 -38.0052 -37.9968 -37.9966 -37.9934 -37.9841 -37.9815
   -37.9796 -37.9770 -37.9761 -37.9625 -37.9612 -37.9574 -37.9559 -37.9496
   -37.9475 -37.9397 -37.9387 -37.9353 -37.9094 -37.9058 -37.9049 -37.8973
   -37.8962 -37.8935 -37.8835 -37.8756 -37.8689 -37.8541 -37.8473 -37.8456
   -37.7467 -37.7344 -37.7299 -37.7133 -37.7123 -37.7096 -37.7010 -37.6939
   -12.4748 -12.0476 -12.0266 -11.8914 -11.8899 -11.7597 -11.6753 -11.6693
   -11.5989 -11.5953 -11.5174 -11.3740 -11.3683 -11.3228 -11.3047 -11.3009
   -11.2921 -11.2385 -11.0732 -11.0532  -8.7494  -8.7489  -8.7378  -8.6971
    -8.4128  -3.0094  -3.0061  -2.9655  -2.8539  -2.7831  -2.7712  -2.7478
    -2.7433  -2.7413  -2.6260  -2.6238  -2.4764  -2.4349  -2.3906  -2.3858
    -2.3836  -2.3259  -2.2747  -2.2448  -2.2406  -2.1968  -1.9996  -1.8123
    -1.8041  -1.7667  -1.6821  -1.6695  -1.6127  -1.5238  -1.5211  -1.4896
    -1.4587  -1.4391  -1.4321  -1.4062  -1.3643  -1.3613  -1.3489  -1.2937
    -1.2899  -1.2764  -1.1604  -1.1218  -1.1112  -1.1003  -1.0531  -1.0253
    -0.9984  -0.9453  -0.9316  -0.9180  -0.8740  -0.8704  -0.8586  -0.8323
    -0.8137  -0.7658  -0.6930  -0.6838  -0.5443  -0.5049  -0.4972  -0.4724
     0.7441   1.1504   1.1815   1.1823   1.4210   1.4213   1.4321   1.4334
     1.4996   1.5169   1.5171   1.5358   1.5983   1.6369   1.6390   1.6510
     1.7524   1.7560   1.7997   2.0378   2.0391   2.0830   2.1317   2.1355
     2.1884   2.2411   2.2734   2.2767   2.2993   2.3979   2.3999   2.4164
     2.4276   2.4291   2.4929   2.5208   2.5227   2.5406   2.5634   2.5930
     2.6944   2.7739   2.7754   2.8356   2.9891   3.0417   3.1034   3.1742
     3.1778   3.2058   3.2110   3.2376   3.3375   3.3396   3.3652   3.3711
     3.3730   3.4133   3.4896   3.5627   3.5721   3.5820   3.6132   3.6512
     3.6755   3.6849   3.6952   3.7038   3.7474   3.7561   3.7581   3.8390
     3.9576   3.9833   3.9853   4.0019   4.0106   4.0180   4.0316   4.1215
     4.1532   4.1560   4.2172   4.2253   4.2424   4.2726   4.2807   4.2841
     4.3215   4.3369   4.3527   4.3609   4.3786   4.4549   4.4611   4.4704
     4.4722   4.5374   4.5472   4.6569   4.6645   4.6884   4.7085   4.7384
     4.7523   4.7577   4.8086   4.8252   4.8494   4.9035   4.9142   4.9162
     4.9443   4.9512   4.9766   5.0392   5.0539   5.1139   5.1284   5.1576
     5.1759   5.2111   5.2430   5.2780   5.2968   5.3319   5.3502   5.4221
     5.4409   5.4429   5.4447   5.4935   5.5215   5.5308   5.5450   5.5494
     5.5705   5.6605   5.6768   5.6909   5.7150   5.7249   5.7301   5.7348
     5.7599   5.7829   5.7915   5.8076   5.8300   5.8571   5.8605   5.8646
     5.8760   5.9125   5.9292   5.9419   5.9506   5.9532   5.9903   5.9948
     6.0050   6.0147   6.0204   6.0271   6.0344   6.0408   6.0773   6.1468
     6.1806   6.1853   6.2010   6.2234   6.2253   6.2289   6.2372   6.2742
     6.2875   6.2899   6.3112   6.3426   6.3735   6.3781   6.4141   6.4324
     6.4414   6.4428   6.5098   6.5141   6.5284   6.5379   6.6217   6.6280
     6.6493   6.6670   6.6738   6.7004   6.7150   6.7174   6.7751   6.7850

          k = 0.0000-0.5774 0.0000 (108310 PWs)   bands (ev):

   -67.0240 -67.0234 -67.0028 -67.0014 -66.9773 -66.9756 -66.9749 -66.9740
   -66.9706 -66.9699 -66.9633 -66.9627 -66.9619 -66.9600 -66.9577 -66.9576
   -66.9477 -66.9438 -66.9438 -66.9434 -66.9401 -66.9368 -66.9363 -66.9348
   -66.7753 -66.7749 -66.7597 -66.7591 -66.7396 -66.7395 -66.7376 -66.7368
   -66.7325 -66.7318 -66.7290 -66.7286 -66.6909 -66.6706 -66.6655 -66.6595
   -66.6450 -66.6325 -66.6226 -66.6209 -66.6171 -66.6153 -66.6152 -66.6124
   -38.8295 -38.8279 -38.8052 -38.8044 -38.7000 -38.6989 -38.6970 -38.6944
   -38.6704 -38.6700 -38.6663 -38.6657 -38.6320 -38.6315 -38.6071 -38.6039
   -38.5693 -38.5676 -38.5604 -38.5589 -38.5550 -38.5528 -38.5332 -38.5329
   -38.4959 -38.4947 -38.4837 -38.4828 -38.4285 -38.4274 -38.4059 -38.4053
   -38.3999 -38.3995 -38.3894 -38.3893 -38.3787 -38.3779 -38.3671 -38.3665
   -38.3612 -38.3611 -38.3534 -38.3514 -38.3389 -38.3389 -38.3084 -38.3069
   -38.3066 -38.3059 -38.3016 -38.3012 -38.2997 -38.2980 -38.2923 -38.2879
   -38.2825 -38.2822 -38.2814 -38.2730 -38.2729 -38.2718 -38.2499 -38.2484
   -38.2353 -38.2292 -38.2282 -38.2229 -38.2221 -38.2194 -38.2189 -38.2168
   -38.2049 -38.2020 -38.2001 -38.2000 -38.1753 -38.1722 -38.1704 -38.1698
   -38.1665 -38.1665 -38.1529 -38.1509 -38.1384 -38.1359 -38.1194 -38.1156
   -38.1141 -38.1134 -38.0999 -38.0961 -38.0945 -38.0882 -38.0841 -38.0810
   -38.0752 -38.0736 -38.0618 -38.0583 -38.0554 -38.0514 -38.0326 -38.0316
   -38.0217 -38.0193 -38.0066 -38.0058 -37.9952 -37.9946 -37.9828 -37.9772
   -37.9762 -37.9739 -37.9710 -37.9698 -37.9577 -37.9545 -37.9535 -37.9499
   -37.9424 -37.9421 -37.9411 -37.9404 -37.9071 -37.9064 -37.9034 -37.9026
   -37.8933 -37.8921 -37.8835 -37.8827 -37.8671 -37.8511 -37.8506 -37.8465
   -37.7456 -37.7270 -37.7231 -37.7186 -37.7125 -37.7102 -37.7084 -37.6958
   -12.2989 -12.2966 -11.9264 -11.9243 -11.9130 -11.9100 -11.6828 -11.6771
   -11.5107 -11.5080 -11.3846 -11.3840 -11.3749 -11.3670 -11.3484 -11.3459
   -11.1661 -11.1626 -11.1458 -11.1457  -8.7510  -8.7505  -8.7163  -8.7159
    -8.4128  -2.9746  -2.9702  -2.8794  -2.8779  -2.8130  -2.8111  -2.8103
    -2.8077  -2.6855  -2.6843  -2.5699  -2.5671  -2.4068  -2.4021  -2.3457
    -2.3353  -2.2917  -2.2815  -2.1617  -2.1562  -2.0743  -2.0729  -1.8857
    -1.8813  -1.7578  -1.7367  -1.7021  -1.6966  -1.6120  -1.6041  -1.4901
    -1.4836  -1.4810  -1.4771  -1.3588  -1.3538  -1.3056  -1.3009  -1.2892
    -1.2824  -1.1717  -1.1684  -1.1158  -1.0887  -1.0875  -1.0721  -1.0693
    -1.0240  -0.9449  -0.9384  -0.8973  -0.8899  -0.8732  -0.8371  -0.7734
    -0.7691  -0.7101  -0.7025  -0.6615  -0.6589  -0.5272  -0.5214  -0.4760
     0.9849   0.9871   1.1695   1.1703   1.4005   1.4023   1.4214   1.4219
     1.4968   1.4972   1.5136   1.5136   1.6556   1.6567   1.6648   1.6721
     1.8915   1.8949   1.8978   1.9006   2.0726   2.0754   2.1080   2.1131
     2.2028   2.2036   2.3344   2.3362   2.3578   2.3591   2.3909   2.3911
     2.4289   2.4313   2.4434   2.4438   2.5483   2.5520   2.7197   2.7243
     2.7741   2.7786   2.7950   2.7989   2.9839   2.9950   3.0129   3.0163
     3.0825   3.0830   3.1769   3.1851   3.3004   3.3014   3.3629   3.3676
     3.3944   3.3990   3.4932   3.4940   3.5889   3.5991   3.6441   3.6455
     3.7077   3.7125   3.7871   3.7931   3.8362   3.8435   3.8759   3.8838
     3.9160   3.9184   3.9541   3.9607   3.9723   3.9820   4.1100   4.1223
     4.1266   4.1311   4.2485   4.2575   4.2599   4.2930   4.3046   4.3162
     4.3352   4.3363   4.3371   4.3554   4.4117   4.4347   4.4435   4.4451
     4.4521   4.4632   4.5827   4.5856   4.5861   4.6267   4.6524   4.6536
     4.6717   4.6723   4.7821   4.7999   4.9628   4.9647   4.9654   4.9672
     4.9692   4.9836   5.0455   5.0519   5.0909   5.0941   5.1101   5.1107
     5.1598   5.1637   5.2389   5.2835   5.3174   5.3187   5.3290   5.3323
     5.4093   5.4121   5.4387   5.4590   5.4961   5.4991   5.5364   5.5401
     5.5605   5.5665   5.5714   5.6497   5.6794   5.6841   5.7184   5.7187
     5.7357   5.7415   5.7623   5.8037   5.8106   5.8176   5.8450   5.8520
     5.8690   5.8736   5.8892   5.8974   5.9517   5.9558   5.9766   5.9802
     6.0130   6.0264   6.0496   6.0899   6.1308   6.1382   6.1422   6.1505
     6.1530   6.1657   6.1696   6.1727   6.1834   6.1885   6.3151   6.3178
     6.3213   6.3237   6.3651   6.3924   6.4038   6.4166   6.4203   6.4230
     6.4366   6.4610   6.4707   6.4731   6.5886   6.5892   6.5954   6.5964
     6.6317   6.6421   6.6851   6.6905   6.8266   6.8322   6.8336   6.8409

          k = 0.2500 0.1443 0.0000 (108355 PWs)   bands (ev):

   -67.0335 -67.0095 -67.0006 -66.9996 -66.9832 -66.9820 -66.9815 -66.9757
   -66.9666 -66.9653 -66.9648 -66.9614 -66.9607 -66.9588 -66.9548 -66.9536
   -66.9500 -66.9488 -66.9457 -66.9417 -66.9393 -66.9385 -66.9355 -66.9328
   -66.7824 -66.7646 -66.7580 -66.7578 -66.7448 -66.7446 -66.7404 -66.7336
   -66.7335 -66.7310 -66.7270 -66.7265 -66.6919 -66.6713 -66.6616 -66.6596
   -66.6450 -66.6349 -66.6237 -66.6220 -66.6181 -66.6156 -66.6133 -66.6108
   -38.8380 -38.8181 -38.8102 -38.8081 -38.7070 -38.7067 -38.7052 -38.6798
   -38.6712 -38.6632 -38.6623 -38.6603 -38.6335 -38.6184 -38.6035 -38.6015
   -38.5740 -38.5718 -38.5625 -38.5532 -38.5492 -38.5478 -38.5413 -38.5196
   -38.5028 -38.5021 -38.5007 -38.4793 -38.4197 -38.4185 -38.4135 -38.4100
   -38.4061 -38.4002 -38.3998 -38.3976 -38.3926 -38.3854 -38.3691 -38.3650
   -38.3645 -38.3551 -38.3499 -38.3489 -38.3248 -38.3186 -38.3057 -38.3040
   -38.3039 -38.3031 -38.3022 -38.3017 -38.2963 -38.2902 -38.2894 -38.2860
   -38.2830 -38.2819 -38.2743 -38.2705 -38.2696 -38.2627 -38.2546 -38.2521
   -38.2475 -38.2465 -38.2452 -38.2341 -38.2302 -38.2291 -38.2282 -38.1973
   -38.1963 -38.1921 -38.1906 -38.1886 -38.1831 -38.1786 -38.1778 -38.1659
   -38.1618 -38.1577 -38.1572 -38.1418 -38.1352 -38.1347 -38.1249 -38.1215
   -38.1167 -38.1097 -38.1068 -38.0969 -38.0916 -38.0884 -38.0854 -38.0784
   -38.0766 -38.0674 -38.0658 -38.0631 -38.0620 -38.0474 -38.0459 -38.0428
   -38.0114 -38.0071 -38.0047 -37.9972 -37.9967 -37.9932 -37.9830 -37.9817
   -37.9795 -37.9783 -37.9776 -37.9625 -37.9600 -37.9575 -37.9554 -37.9497
   -37.9476 -37.9395 -37.9391 -37.9351 -37.9093 -37.9058 -37.9052 -37.8967
   -37.8964 -37.8937 -37.8833 -37.8759 -37.8689 -37.8540 -37.8473 -37.8456
   -37.7452 -37.7351 -37.7307 -37.7174 -37.7107 -37.7074 -37.7003 -37.6944
   -12.4748 -12.0476 -12.0266 -11.8910 -11.8902 -11.7599 -11.6723 -11.6720
   -11.5973 -11.5969 -11.5174 -11.3713 -11.3711 -11.3227 -11.3034 -11.3028
   -11.2916 -11.2383 -11.0731 -11.0532  -8.7494  -8.7490  -8.7378  -8.6971
    -8.4128  -3.0086  -3.0060  -2.9664  -2.8542  -2.7835  -2.7707  -2.7462
    -2.7429  -2.7414  -2.6265  -2.6242  -2.4760  -2.4359  -2.3930  -2.3858
    -2.3842  -2.3260  -2.2730  -2.2450  -2.2411  -2.1953  -1.9983  -1.8108
    -1.8050  -1.7676  -1.6756  -1.6716  -1.6163  -1.5246  -1.5193  -1.4847
    -1.4598  -1.4389  -1.4305  -1.4098  -1.3648  -1.3607  -1.3511  -1.2946
    -1.2916  -1.2778  -1.1656  -1.1420  -1.1091  -1.0847  -1.0533  -1.0293
    -0.9844  -0.9435  -0.9335  -0.9168  -0.8735  -0.8686  -0.8622  -0.8417
    -0.8130  -0.7557  -0.6932  -0.6861  -0.5441  -0.5020  -0.4976  -0.4741
     0.7443   1.1505   1.1818   1.1821   1.4209   1.4212   1.4320   1.4333
     1.4998   1.5171   1.5173   1.5359   1.5984   1.6381   1.6389   1.6511
     1.7542   1.7559   1.7982   2.0380   2.0393   2.0823   2.1338   2.1346
     2.1884   2.2403   2.2741   2.2755   2.3002   2.3985   2.4008   2.4162
     2.4262   2.4285   2.4905   2.5208   2.5226   2.5404   2.5632   2.5922
     2.6952   2.7730   2.7747   2.8379   2.9893   3.0418   3.1056   3.1742
     3.1756   3.2057   3.2113   3.2400   3.3361   3.3393   3.3650   3.3717
     3.3739   3.4132   3.4916   3.5549   3.5731   3.5825   3.6136   3.6580
     3.6742   3.6862   3.6912   3.7058   3.7506   3.7540   3.7565   3.8407
     3.9641   3.9784   3.9943   3.9964   4.0101   4.0169   4.0312   4.1153
     4.1482   4.1521   4.2166   4.2227   4.2561   4.2703   4.2775   4.2856
     4.3078   4.3369   4.3521   4.3643   4.3768   4.4527   4.4649   4.4689
     4.4746   4.5424   4.5466   4.6500   4.6656   4.6935   4.7215   4.7432
     4.7476   4.7563   4.8081   4.8202   4.8529   4.9013   4.9131   4.9182
     4.9481   4.9545   4.9771   5.0375   5.0644   5.1082   5.1244   5.1605
     5.1698   5.2008   5.2548   5.2732   5.3032   5.3287   5.3432   5.4273
     5.4424   5.4442   5.4466   5.4922   5.5212   5.5289   5.5428   5.5489
     5.5649   5.6474   5.6745   5.6957   5.7243   5.7272   5.7322   5.7342
     5.7619   5.7843   5.7949   5.8014   5.8113   5.8590   5.8635   5.8670
     5.8745   5.9200   5.9305   5.9398   5.9465   5.9677   5.9879   5.9936
     6.0021   6.0130   6.0212   6.0292   6.0352   6.0453   6.0694   6.1549
     6.1795   6.1832   6.2011   6.2240   6.2259   6.2309   6.2445   6.2840
     6.2886   6.2900   6.3134   6.3442   6.3681   6.3785   6.3908   6.4297
     6.4408   6.4559   6.5110   6.5173   6.5267   6.5331   6.6231   6.6316
     6.6488   6.6651   6.6752   6.6930   6.7130   6.7385   6.7739   6.7864

          k = 0.2500 0.4330 0.0000 (108308 PWs)   bands (ev):

   -67.0269 -67.0153 -67.0144 -66.9911 -66.9833 -66.9783 -66.9736 -66.9708
   -66.9694 -66.9685 -66.9678 -66.9624 -66.9622 -66.9588 -66.9579 -66.9538
   -66.9508 -66.9456 -66.9425 -66.9420 -66.9396 -66.9380 -66.9366 -66.9341
   -66.7774 -66.7687 -66.7684 -66.7519 -66.7452 -66.7391 -66.7359 -66.7356
   -66.7318 -66.7317 -66.7298 -66.7288 -66.6907 -66.6705 -66.6666 -66.6585
   -66.6446 -66.6332 -66.6226 -66.6202 -66.6184 -66.6158 -66.6138 -66.6127
   -38.8313 -38.8202 -38.8183 -38.7971 -38.7017 -38.7006 -38.6950 -38.6910
   -38.6765 -38.6682 -38.6655 -38.6642 -38.6330 -38.6243 -38.6233 -38.5844
   -38.5781 -38.5663 -38.5657 -38.5605 -38.5588 -38.5424 -38.5402 -38.5270
   -38.4917 -38.4913 -38.4898 -38.4792 -38.4546 -38.4080 -38.4077 -38.4074
   -38.3997 -38.3949 -38.3860 -38.3834 -38.3831 -38.3765 -38.3759 -38.3671
   -38.3610 -38.3542 -38.3539 -38.3525 -38.3357 -38.3299 -38.3292 -38.3088
   -38.3083 -38.3039 -38.3029 -38.2994 -38.2947 -38.2918 -38.2894 -38.2891
   -38.2859 -38.2822 -38.2808 -38.2733 -38.2710 -38.2695 -38.2686 -38.2351
   -38.2343 -38.2322 -38.2287 -38.2238 -38.2215 -38.2197 -38.2179 -38.2095
   -38.2069 -38.2037 -38.2030 -38.2007 -38.1771 -38.1717 -38.1707 -38.1633
   -38.1623 -38.1602 -38.1594 -38.1557 -38.1495 -38.1276 -38.1208 -38.1183
   -38.1144 -38.1111 -38.0989 -38.0975 -38.0957 -38.0895 -38.0871 -38.0828
   -38.0749 -38.0635 -38.0625 -38.0592 -38.0538 -38.0423 -38.0411 -38.0363
   -38.0216 -38.0103 -38.0085 -38.0054 -37.9962 -37.9934 -37.9872 -37.9810
   -37.9781 -37.9731 -37.9714 -37.9682 -37.9568 -37.9537 -37.9524 -37.9487
   -37.9467 -37.9445 -37.9366 -37.9364 -37.9115 -37.9112 -37.8997 -37.8989
   -37.8972 -37.8879 -37.8875 -37.8799 -37.8673 -37.8524 -37.8486 -37.8472
   -37.7430 -37.7303 -37.7247 -37.7194 -37.7146 -37.7076 -37.7047 -37.6967
   -12.3545 -12.1419 -12.1403 -11.9479 -11.8146 -11.8116 -11.7633 -11.5968
   -11.5711 -11.4607 -11.4414 -11.4404 -11.4254 -11.3602 -11.2500 -11.2463
   -11.2261 -11.2255 -11.1366 -11.1180  -8.7594  -8.7321  -8.7318  -8.7104
    -8.4128  -3.0232  -2.9248  -2.9224  -2.9062  -2.7947  -2.7935  -2.7534
    -2.7173  -2.6656  -2.6525  -2.6303  -2.6282  -2.5839  -2.3951  -2.2611
    -2.2578  -2.2454  -2.2244  -2.1699  -2.1666  -2.1270  -2.1216  -1.9964
    -1.8288  -1.8153  -1.7374  -1.7085  -1.6196  -1.5685  -1.5638  -1.4870
    -1.4626  -1.4449  -1.4300  -1.4141  -1.4055  -1.4036  -1.3465  -1.2303
    -1.2262  -1.1823  -1.1806  -1.1601  -1.1165  -1.1086  -1.0301  -0.9961
    -0.9737  -0.9672  -0.9194  -0.9060  -0.8847  -0.8718  -0.8442  -0.8304
    -0.7919  -0.7861  -0.6977  -0.6006  -0.5913  -0.5890  -0.4951  -0.4775
     0.9200   1.1017   1.1031   1.2025   1.3877   1.4035   1.4049   1.4057
     1.4491   1.5305   1.5312   1.5577   1.6247   1.6429   1.6459   1.7025
     1.8196   1.9381   1.9403   2.0274   2.0279   2.0913   2.0925   2.1510
     2.1574   2.2183   2.2206   2.2517   2.3266   2.3319   2.3668   2.3674
     2.4189   2.4679   2.5334   2.5598   2.5623   2.6441   2.6452   2.7580
     2.7643   2.7670   2.7975   2.8058   2.8989   2.9049   2.9083   2.9720
     3.1540   3.2170   3.2612   3.2667   3.3079   3.3107   3.3174   3.4028
     3.4058   3.4083   3.4241   3.5323   3.5516   3.5536   3.6196   3.6791
     3.6906   3.7226   3.7277   3.7567   3.7625   3.8162   3.8421   3.8583
     3.9931   4.0065   4.0229   4.0340   4.0408   4.0461   4.0552   4.0884
     4.1224   4.1530   4.1789   4.2106   4.2151   4.2659   4.2779   4.3037
     4.3292   4.3380   4.3649   4.3758   4.4100   4.4177   4.4347   4.4463
     4.5326   4.5385   4.5583   4.5686   4.5769   4.5814   4.6125   4.6482
     4.7022   4.8332   4.8361   4.8539   4.8565   4.8673   4.8808   4.8926
     4.9276   4.9469   5.0116   5.0295   5.0923   5.1161   5.1352   5.1427
     5.1532   5.2485   5.2683   5.2855   5.2936   5.3215   5.3633   5.3994
     5.4081   5.4106   5.4262   5.4569   5.4788   5.4883   5.5120   5.5621
     5.5747   5.5969   5.6132   5.6857   5.7015   5.7066   5.7081   5.7199
     5.7468   5.7486   5.7534   5.7598   5.7838   5.8343   5.8391   5.8476
     5.8564   5.8660   5.8866   5.8990   5.9272   5.9424   5.9604   5.9971
     6.0071   6.0257   6.0432   6.0486   6.0671   6.0820   6.0865   6.1485
     6.1539   6.1614   6.1861   6.1981   6.2125   6.2480   6.2648   6.2812
     6.3124   6.3303   6.3472   6.3605   6.4027   6.4357   6.4486   6.4747
     6.4766   6.4986   6.5398   6.5420   6.5701   6.5952   6.6261   6.6448
     6.6488   6.6613   6.6948   6.6993   6.7252   6.7718   6.8239   6.8323

          k = 0.2500-0.4330 0.0000 (108308 PWs)   bands (ev):

   -67.0269 -67.0153 -67.0144 -66.9911 -66.9833 -66.9783 -66.9736 -66.9708
   -66.9694 -66.9685 -66.9678 -66.9624 -66.9622 -66.9588 -66.9579 -66.9538
   -66.9508 -66.9456 -66.9425 -66.9420 -66.9396 -66.9380 -66.9366 -66.9341
   -66.7774 -66.7687 -66.7684 -66.7519 -66.7452 -66.7391 -66.7359 -66.7356
   -66.7318 -66.7317 -66.7298 -66.7288 -66.6907 -66.6705 -66.6666 -66.6585
   -66.6446 -66.6332 -66.6226 -66.6202 -66.6184 -66.6158 -66.6138 -66.6127
   -38.8313 -38.8202 -38.8183 -38.7971 -38.7017 -38.7006 -38.6950 -38.6910
   -38.6765 -38.6682 -38.6655 -38.6642 -38.6330 -38.6243 -38.6233 -38.5844
   -38.5781 -38.5663 -38.5657 -38.5605 -38.5588 -38.5424 -38.5402 -38.5270
   -38.4917 -38.4913 -38.4898 -38.4792 -38.4546 -38.4080 -38.4077 -38.4074
   -38.3997 -38.3949 -38.3860 -38.3834 -38.3831 -38.3765 -38.3759 -38.3671
   -38.3610 -38.3542 -38.3539 -38.3525 -38.3357 -38.3299 -38.3292 -38.3088
   -38.3083 -38.3039 -38.3029 -38.2994 -38.2947 -38.2918 -38.2894 -38.2891
   -38.2859 -38.2822 -38.2808 -38.2733 -38.2710 -38.2695 -38.2687 -38.2351
   -38.2343 -38.2322 -38.2287 -38.2238 -38.2215 -38.2197 -38.2179 -38.2095
   -38.2069 -38.2037 -38.2030 -38.2007 -38.1771 -38.1717 -38.1707 -38.1633
   -38.1623 -38.1602 -38.1594 -38.1557 -38.1495 -38.1276 -38.1208 -38.1183
   -38.1144 -38.1111 -38.0989 -38.0975 -38.0957 -38.0895 -38.0871 -38.0828
   -38.0749 -38.0635 -38.0625 -38.0592 -38.0538 -38.0423 -38.0411 -38.0363
   -38.0216 -38.0103 -38.0085 -38.0054 -37.9962 -37.9934 -37.9872 -37.9810
   -37.9781 -37.9731 -37.9714 -37.9682 -37.9568 -37.9537 -37.9524 -37.9487
   -37.9467 -37.9445 -37.9366 -37.9364 -37.9115 -37.9112 -37.8997 -37.8989
   -37.8972 -37.8879 -37.8875 -37.8799 -37.8673 -37.8524 -37.8486 -37.8472
   -37.7430 -37.7303 -37.7247 -37.7194 -37.7146 -37.7076 -37.7047 -37.6967
   -12.3545 -12.1419 -12.1403 -11.9479 -11.8146 -11.8116 -11.7633 -11.5968
   -11.5711 -11.4607 -11.4414 -11.4404 -11.4254 -11.3602 -11.2500 -11.2463
   -11.2261 -11.2255 -11.1366 -11.1180  -8.7594  -8.7321  -8.7318  -8.7104
    -8.4128  -3.0232  -2.9248  -2.9224  -2.9062  -2.7947  -2.7935  -2.7534
    -2.7173  -2.6656  -2.6525  -2.6303  -2.6282  -2.5839  -2.3951  -2.2611
    -2.2578  -2.2454  -2.2244  -2.1699  -2.1666  -2.1270  -2.1216  -1.9964
    -1.8288  -1.8153  -1.7374  -1.7085  -1.6196  -1.5685  -1.5638  -1.4870
    -1.4626  -1.4449  -1.4300  -1.4141  -1.4055  -1.4036  -1.3465  -1.2303
    -1.2262  -1.1823  -1.1806  -1.1601  -1.1165  -1.1086  -1.0301  -0.9961
    -0.9737  -0.9672  -0.9195  -0.9060  -0.8847  -0.8718  -0.8442  -0.8304
    -0.7919  -0.7861  -0.6977  -0.6006  -0.5913  -0.5890  -0.4951  -0.4775
     0.9200   1.1017   1.1031   1.2025   1.3877   1.4035   1.4049   1.4057
     1.4491   1.5305   1.5312   1.5577   1.6247   1.6429   1.6459   1.7025
     1.8196   1.9381   1.9403   2.0274   2.0279   2.0913   2.0925   2.1510
     2.1574   2.2183   2.2206   2.2517   2.3266   2.3319   2.3668   2.3674
     2.4189   2.4679   2.5334   2.5598   2.5622   2.6441   2.6452   2.7580
     2.7643   2.7670   2.7975   2.8058   2.8989   2.9049   2.9083   2.9720
     3.1540   3.2171   3.2612   3.2667   3.3078   3.3107   3.3174   3.4028
     3.4058   3.4083   3.4241   3.5323   3.5516   3.5536   3.6196   3.6790
     3.6906   3.7226   3.7277   3.7567   3.7625   3.8162   3.8421   3.8583
     3.9931   4.0066   4.0229   4.0340   4.0408   4.0461   4.0552   4.0884
     4.1224   4.1530   4.1789   4.2106   4.2151   4.2659   4.2779   4.3037
     4.3292   4.3380   4.3649   4.3758   4.4100   4.4177   4.4347   4.4463
     4.5326   4.5384   4.5583   4.5686   4.5769   4.5814   4.6125   4.6482
     4.7022   4.8332   4.8361   4.8539   4.8565   4.8673   4.8808   4.8926
     4.9276   4.9469   5.0116   5.0295   5.0923   5.1161   5.1352   5.1427
     5.1532   5.2485   5.2683   5.2855   5.2936   5.3215   5.3633   5.3994
     5.4081   5.4106   5.4262   5.4569   5.4788   5.4883   5.5120   5.5621
     5.5747   5.5969   5.6132   5.6857   5.7015   5.7066   5.7081   5.7199
     5.7468   5.7486   5.7534   5.7598   5.7838   5.8343   5.8391   5.8476
     5.8564   5.8660   5.8866   5.8990   5.9272   5.9424   5.9604   5.9971
     6.0071   6.0257   6.0432   6.0486   6.0671   6.0820   6.0865   6.1485
     6.1539   6.1614   6.1861   6.1981   6.2125   6.2480   6.2648   6.2812
     6.3124   6.3303   6.3472   6.3605   6.4027   6.4357   6.4486   6.4747
     6.4766   6.4986   6.5398   6.5420   6.5701   6.5952   6.6261   6.6448
     6.6488   6.6613   6.6948   6.6993   6.7252   6.7718   6.8238   6.8324

          k = 0.2500-0.1443 0.0000 (108355 PWs)   bands (ev):

   -67.0335 -67.0095 -67.0006 -66.9996 -66.9832 -66.9820 -66.9815 -66.9757
   -66.9666 -66.9653 -66.9648 -66.9614 -66.9607 -66.9588 -66.9548 -66.9536
   -66.9500 -66.9488 -66.9457 -66.9417 -66.9393 -66.9385 -66.9355 -66.9328
   -66.7824 -66.7646 -66.7580 -66.7578 -66.7448 -66.7446 -66.7404 -66.7336
   -66.7335 -66.7310 -66.7270 -66.7265 -66.6919 -66.6713 -66.6616 -66.6596
   -66.6450 -66.6349 -66.6237 -66.6220 -66.6181 -66.6156 -66.6133 -66.6107
   -38.8380 -38.8181 -38.8102 -38.8081 -38.7070 -38.7067 -38.7052 -38.6798
   -38.6712 -38.6632 -38.6623 -38.6603 -38.6335 -38.6184 -38.6035 -38.6015
   -38.5740 -38.5718 -38.5625 -38.5532 -38.5492 -38.5478 -38.5413 -38.5196
   -38.5028 -38.5021 -38.5007 -38.4793 -38.4197 -38.4185 -38.4135 -38.4100
   -38.4061 -38.4002 -38.3998 -38.3976 -38.3926 -38.3854 -38.3691 -38.3650
   -38.3645 -38.3551 -38.3499 -38.3489 -38.3248 -38.3186 -38.3057 -38.3040
   -38.3039 -38.3031 -38.3022 -38.3017 -38.2963 -38.2902 -38.2894 -38.2860
   -38.2830 -38.2819 -38.2743 -38.2705 -38.2696 -38.2627 -38.2546 -38.2521
   -38.2475 -38.2465 -38.2452 -38.2341 -38.2302 -38.2291 -38.2282 -38.1973
   -38.1963 -38.1921 -38.1906 -38.1886 -38.1831 -38.1786 -38.1778 -38.1659
   -38.1618 -38.1577 -38.1572 -38.1418 -38.1352 -38.1347 -38.1249 -38.1215
   -38.1167 -38.1097 -38.1068 -38.0969 -38.0916 -38.0884 -38.0854 -38.0784
   -38.0766 -38.0674 -38.0658 -38.0631 -38.0620 -38.0474 -38.0459 -38.0428
   -38.0114 -38.0071 -38.0047 -37.9972 -37.9967 -37.9932 -37.9830 -37.9817
   -37.9795 -37.9783 -37.9776 -37.9625 -37.9600 -37.9575 -37.9554 -37.9497
   -37.9476 -37.9395 -37.9391 -37.9351 -37.9093 -37.9058 -37.9052 -37.8967
   -37.8964 -37.8937 -37.8833 -37.8759 -37.8689 -37.8540 -37.8473 -37.8456
   -37.7452 -37.7351 -37.7307 -37.7174 -37.7107 -37.7074 -37.7003 -37.6944
   -12.4748 -12.0476 -12.0266 -11.8910 -11.8902 -11.7599 -11.6723 -11.6720
   -11.5973 -11.5969 -11.5174 -11.3713 -11.3711 -11.3227 -11.3034 -11.3028
   -11.2916 -11.2383 -11.0731 -11.0532  -8.7494  -8.7490  -8.7378  -8.6971
    -8.4128  -3.0086  -3.0060  -2.9664  -2.8542  -2.7835  -2.7707  -2.7462
    -2.7429  -2.7414  -2.6265  -2.6242  -2.4760  -2.4359  -2.3930  -2.3858
    -2.3842  -2.3260  -2.2730  -2.2450  -2.2411  -2.1953  -1.9983  -1.8108
    -1.8050  -1.7676  -1.6756  -1.6716  -1.6163  -1.5246  -1.5193  -1.4847
    -1.4598  -1.4389  -1.4305  -1.4098  -1.3648  -1.3607  -1.3511  -1.2946
    -1.2916  -1.2778  -1.1656  -1.1420  -1.1091  -1.0847  -1.0533  -1.0293
    -0.9844  -0.9435  -0.9335  -0.9167  -0.8735  -0.8686  -0.8622  -0.8417
    -0.8130  -0.7557  -0.6932  -0.6861  -0.5441  -0.5020  -0.4976  -0.4741
     0.7443   1.1505   1.1818   1.1821   1.4209   1.4212   1.4320   1.4333
     1.4998   1.5171   1.5173   1.5359   1.5984   1.6381   1.6389   1.6511
     1.7542   1.7559   1.7982   2.0380   2.0393   2.0823   2.1338   2.1346
     2.1884   2.2403   2.2741   2.2755   2.3002   2.3985   2.4008   2.4162
     2.4262   2.4285   2.4905   2.5208   2.5226   2.5404   2.5632   2.5922
     2.6952   2.7730   2.7747   2.8379   2.9893   3.0418   3.1056   3.1742
     3.1756   3.2057   3.2113   3.2400   3.3361   3.3393   3.3650   3.3717
     3.3739   3.4132   3.4916   3.5549   3.5731   3.5825   3.6136   3.6580
     3.6742   3.6862   3.6912   3.7058   3.7506   3.7540   3.7565   3.8407
     3.9641   3.9784   3.9942   3.9964   4.0101   4.0169   4.0312   4.1153
     4.1482   4.1521   4.2166   4.2227   4.2561   4.2703   4.2775   4.2856
     4.3078   4.3369   4.3521   4.3643   4.3768   4.4527   4.4649   4.4689
     4.4746   4.5424   4.5466   4.6500   4.6656   4.6935   4.7215   4.7432
     4.7476   4.7563   4.8081   4.8202   4.8529   4.9013   4.9131   4.9182
     4.9481   4.9545   4.9771   5.0375   5.0644   5.1082   5.1244   5.1605
     5.1698   5.2007   5.2549   5.2732   5.3032   5.3287   5.3432   5.4273
     5.4423   5.4442   5.4466   5.4922   5.5212   5.5289   5.5428   5.5489
     5.5649   5.6474   5.6745   5.6957   5.7244   5.7272   5.7322   5.7342
     5.7619   5.7843   5.7949   5.8014   5.8113   5.8590   5.8635   5.8670
     5.8745   5.9200   5.9306   5.9398   5.9465   5.9677   5.9879   5.9936
     6.0021   6.0130   6.0212   6.0292   6.0352   6.0453   6.0694   6.1549
     6.1795   6.1832   6.2011   6.2240   6.2259   6.2309   6.2445   6.2841
     6.2886   6.2900   6.3134   6.3442   6.3681   6.3785   6.3908   6.4297
     6.4408   6.4559   6.5110   6.5173   6.5267   6.5331   6.6231   6.6316
     6.6488   6.6651   6.6752   6.6930   6.7130   6.7385   6.7744   6.7847

          k =-0.5000-0.2887 0.0000 (108310 PWs)   bands (ev):

   -67.0241 -67.0233 -67.0026 -67.0017 -66.9772 -66.9756 -66.9741 -66.9736
   -66.9714 -66.9703 -66.9637 -66.9628 -66.9618 -66.9602 -66.9577 -66.9574
   -66.9464 -66.9451 -66.9442 -66.9417 -66.9398 -66.9386 -66.9370 -66.9335
   -66.7752 -66.7749 -66.7594 -66.7593 -66.7400 -66.7396 -66.7371 -66.7369
   -66.7321 -66.7320 -66.7290 -66.7287 -66.6906 -66.6722 -66.6636 -66.6602
   -66.6437 -66.6337 -66.6234 -66.6194 -66.6171 -66.6166 -66.6153 -66.6117
   -38.8296 -38.8277 -38.8060 -38.8038 -38.7013 -38.6987 -38.6948 -38.6945
   -38.6717 -38.6692 -38.6674 -38.6656 -38.6328 -38.6314 -38.6057 -38.6035
   -38.5705 -38.5675 -38.5594 -38.5588 -38.5554 -38.5523 -38.5349 -38.5324
   -38.4956 -38.4947 -38.4833 -38.4831 -38.4291 -38.4277 -38.4055 -38.4053
   -38.3999 -38.3995 -38.3899 -38.3890 -38.3783 -38.3779 -38.3669 -38.3662
   -38.3610 -38.3604 -38.3530 -38.3517 -38.3397 -38.3390 -38.3081 -38.3066
   -38.3065 -38.3065 -38.3020 -38.3010 -38.2992 -38.2984 -38.2944 -38.2882
   -38.2824 -38.2819 -38.2799 -38.2739 -38.2723 -38.2720 -38.2492 -38.2482
   -38.2367 -38.2290 -38.2268 -38.2228 -38.2214 -38.2201 -38.2188 -38.2170
   -38.2070 -38.2031 -38.2009 -38.1981 -38.1745 -38.1707 -38.1701 -38.1697
   -38.1661 -38.1657 -38.1532 -38.1524 -38.1367 -38.1355 -38.1257 -38.1169
   -38.1150 -38.1082 -38.1005 -38.0956 -38.0929 -38.0894 -38.0824 -38.0808
   -38.0758 -38.0743 -38.0606 -38.0584 -38.0565 -38.0522 -38.0320 -38.0300
[...]
     6.7164   6.7603   6.7726   6.7925   6.8195   6.8579   6.9007   6.9218

          k =-0.5000-0.8660 0.0000 (108310 PWs)   bands (ev):

   -66.9555 -66.9525 -66.9336 -66.9325 -66.9082 -66.9062 -66.9051 -66.9041
   -66.9032 -66.9012 -66.8967 -66.8946 -66.8914 -66.8895 -66.8892 -66.8886
   -66.8752 -66.8741 -66.8676 -66.8666 -66.8647 -66.8626 -66.8587 -66.8541
   -66.7125 -66.7118 -66.6996 -66.6990 -66.6681 -66.6664 -66.6629 -66.6624
   -66.6610 -66.6592 -66.6560 -66.6552 -66.6224 -66.5992 -66.5929 -66.5889
   -66.5824 -66.5755 -66.5443 -66.5427 -66.5334 -66.5320 -66.5266 -66.5241
   -38.7506 -38.7435 -38.7261 -38.7183 -38.6244 -38.6211 -38.6190 -38.6141
   -38.6011 -38.5965 -38.5940 -38.5913 -38.5612 -38.5579 -38.5297 -38.5264
   -38.5001 -38.4985 -38.4974 -38.4949 -38.4945 -38.4904 -38.4727 -38.4717
   -38.4227 -38.4188 -38.4149 -38.4146 -38.4113 -38.4090 -38.3915 -38.3902
   -38.3566 -38.3555 -38.3198 -38.3195 -38.3122 -38.3103 -38.2970 -38.2947
   -38.2888 -38.2871 -38.2857 -38.2836 -38.2705 -38.2685 -38.2538 -38.2536
   -38.2522 -38.2503 -38.2449 -38.2438 -38.2320 -38.2307 -38.2289 -38.2281
   -38.2162 -38.2144 -38.2124 -38.2088 -38.2078 -38.2026 -38.1767 -38.1761
   -38.1738 -38.1665 -38.1653 -38.1611 -38.1526 -38.1494 -38.1483 -38.1444
   -38.1370 -38.1343 -38.1252 -38.1205 -38.1071 -38.1049 -38.1007 -38.0999
   -38.0929 -38.0899 -38.0827 -38.0814 -38.0768 -38.0708 -38.0631 -38.0565
   -38.0537 -38.0459 -38.0160 -38.0156 -38.0120 -38.0055 -38.0010 -37.9968
   -37.9866 -37.9827 -37.9774 -37.9759 -37.9735 -37.9660 -37.9638 -37.9493
   -37.9454 -37.9336 -37.9283 -37.9207 -37.9120 -37.9076 -37.9022 -37.9009
   -37.8981 -37.8959 -37.8916 -37.8873 -37.8804 -37.8771 -37.8750 -37.8730
   -37.8704 -37.8698 -37.8666 -37.8642 -37.8320 -37.8319 -37.8252 -37.8218
   -37.8169 -37.8150 -37.8058 -37.8041 -37.7866 -37.7840 -37.7791 -37.7779
   -37.6892 -37.6808 -37.6524 -37.6371 -37.6255 -37.6225 -37.6179 -37.6053
   -12.1814 -12.1744 -11.8095 -11.8076 -11.7977 -11.7911 -11.5535 -11.5491
   -11.3884 -11.3867 -11.2859 -11.2767 -11.2652 -11.2606 -11.1783 -11.1769
   -11.0744 -11.0308 -10.9673 -10.9634  -9.2016  -9.2013  -9.1387  -9.1382
    -8.3334  -2.8674  -2.8593  -2.7650  -2.7596  -2.7045  -2.6969  -2.6824
    -2.6779  -2.5616  -2.5532  -2.4490  -2.4445  -2.2816  -2.2800  -2.2313
    -2.2184  -2.1760  -2.1701  -2.0279  -2.0170  -1.9604  -1.9483  -1.7621
    -1.7544  -1.6345  -1.6258  -1.5774  -1.5681  -1.4963  -1.4842  -1.3780
    -1.3644  -1.3548  -1.3486  -1.2599  -1.2510  -1.2084  -1.1794  -1.1729
    -1.1601  -1.1359  -1.0527  -1.0388  -0.9802  -0.9686  -0.9433  -0.9388
    -0.8362  -0.8314  -0.7983  -0.7783  -0.7516  -0.7412  -0.6997  -0.6788
    -0.6388  -0.6279  -0.5890  -0.5566  -0.5133  -0.4864  -0.3625  -0.3520
     0.8134   0.8159   0.8613   0.8621   1.1111   1.1128   1.1250   1.1252
     1.1397   1.1430   1.1848   1.1880   1.4226   1.4372   1.6704   1.6909
     1.9447   1.9562   1.9645   1.9795   2.0704   2.0815   2.1037   2.1202
     2.2398   2.2481   2.4162   2.4239   2.4249   2.4402   2.4733   2.4785
     2.5190   2.5254   2.5263   2.5319   2.6326   2.6496   2.7766   2.7888
     2.7971   2.8039   2.8603   2.8707   3.0618   3.0681   3.0830   3.0878
     3.1400   3.1441   3.2497   3.2581   3.3669   3.3726   3.4161   3.4458
     3.4679   3.4739   3.5531   3.5629   3.6509   3.6640   3.7101   3.7156
     3.7707   3.7779   3.8227   3.8408   3.8955   3.9343   3.9388   3.9498
     3.9844   3.9930   4.0104   4.0167   4.0415   4.0660   4.1601   4.1782
     4.1832   4.1956   4.2858   4.2957   4.3307   4.3578   4.3641   4.3846
     4.3992   4.4040   4.4254   4.4300   4.4707   4.4813   4.4948   4.5130
     4.5162   4.5281   4.6441   4.6469   4.6646   4.6866   4.6883   4.6985
     4.7235   4.7406   4.8485   4.8794   4.9940   5.0333   5.0455   5.0571
     5.0886   5.1013   5.1044   5.1196   5.1668   5.1713   5.1828   5.1913
     5.2195   5.2496   5.2875   5.3409   5.3861   5.3928   5.4007   5.4116
     5.4648   5.4726   5.4963   5.5477   5.5828   5.5881   5.5951   5.6117
     5.6230   5.6354   5.6590   5.6810   5.7685   5.7762   5.7901   5.7933
     5.8002   5.8165   5.8372   5.8482   5.8861   5.8998   5.9260   5.9319
     5.9358   5.9439   5.9629   5.9744   6.0239   6.0437   6.0489   6.0662
     6.0994   6.1022   6.1165   6.1588   6.2066   6.2121   6.2301   6.2340
     6.2460   6.2491   6.2699   6.2778   6.2853   6.3279   6.3863   6.4057
     6.4185   6.4280   6.4452   6.4548   6.4762   6.4815   6.4909   6.4978
     6.5034   6.5241   6.5703   6.5856   6.6427   6.6664   6.6836   6.6893
     6.7129   6.7283   6.7872   6.8135   6.8982   6.9038   6.9285   6.9396

     the Fermi energy is     5.2414 ev

!    total energy              =  -12616.47502144 Ry
     total all-electron energy =   -103594.978828 Ry
     estimated scf accuracy    <          9.4E-11 Ry
     smearing contrib. (-TS)   =       0.01031802 Ry
     internal energy E=F+TS    =  -12616.48533945 Ry

     The total energy is F=E-TS. E is the sum of the following terms:
     one-electron contribution =  -67399.42494078 Ry
     hartree contribution      =   33814.58139149 Ry
     xc contribution           =   -1216.11060292 Ry
     ewald contribution        =   25946.83723039 Ry
     DFT-D3 Dispersion         =      -1.08558202 Ry
     one-center paw contrib.   =   -3761.28283561 Ry

     convergence has been achieved in  37 iterations

     negative rho (up, down):  2.017E-04 0.000E+00

     Forces acting on atoms (cartesian axes, Ry/au):

     atom    1 type  1   force =    -0.00000216   -0.00029706    0.00015082
     atom    2 type  1   force =    -0.00003041   -0.00002777   -0.00002548
     atom    3 type  1   force =     0.00012892   -0.00019116    0.00013484
     atom    4 type  1   force =    -0.00012993   -0.00005417   -0.00012044
     atom    5 type  1   force =     0.00008144    0.00023648    0.00012528
     atom    6 type  1   force =     0.00010479    0.00015059   -0.00019623
     atom    7 type  2   force =    -0.00009441    0.00051881    0.00018661
     atom    8 type  2   force =     0.00005259    0.00008636    0.00053437
     atom    9 type  2   force =    -0.00001532    0.00003308    0.00082199
     atom   10 type  1   force =    -0.00016573    0.00004656   -0.00030922
     atom   11 type  1   force =    -0.00010287   -0.00023197    0.00027664
     atom   12 type  1   force =     0.00027161   -0.00022881   -0.00032142
     atom   13 type  1   force =    -0.00003353   -0.00040951   -0.00037303
     atom   14 type  1   force =    -0.00030267   -0.00030297    0.00011679
     atom   15 type  1   force =    -0.00017742    0.00011169    0.00038257
     atom   16 type  2   force =     0.00005711   -0.00034687   -0.00046779
     atom   17 type  2   force =     0.00029168   -0.00003013   -0.00021350
     atom   18 type  2   force =     0.00007633   -0.00041036   -0.00056208
     atom   19 type  1   force =     0.00005770   -0.00033213   -0.00013858
     atom   20 type  1   force =    -0.00026618    0.00000002    0.00011104
     atom   21 type  1   force =    -0.00000211    0.00029691    0.00015083
     atom   22 type  1   force =     0.00008162   -0.00023684    0.00012485
     atom   23 type  1   force =     0.00013935    0.00013316   -0.00046688
     atom   24 type  1   force =     0.00014892   -0.00000010    0.00001650
     atom   25 type  2   force =     0.00034423    0.00000001   -0.00001341
     atom   26 type  2   force =    -0.00001535   -0.00003315    0.00082211
     atom   27 type  2   force =     0.00000222    0.00001816    0.00032962
     atom   28 type  1   force =     0.00010648    0.00003729    0.00004307
     atom   29 type  1   force =    -0.00050639    0.00000036    0.00006352
     atom   30 type  1   force =    -0.00016599   -0.00004690   -0.00030948
     atom   31 type  1   force =    -0.00030248    0.00030262    0.00011658
     atom   32 type  1   force =    -0.00034726   -0.00010880    0.00039048
     atom   33 type  1   force =    -0.00055897   -0.00000005    0.00074300
     atom   34 type  2   force =    -0.00016903    0.00000004   -0.00067476
     atom   35 type  2   force =     0.00007606    0.00041025   -0.00056230
     atom   36 type  2   force =    -0.00017155    0.00008204   -0.00012712
     atom   37 type  1   force =     0.00040192   -0.00021213    0.00018151
     atom   38 type  1   force =    -0.00003040    0.00002792   -0.00002601
     atom   39 type  1   force =     0.00005833    0.00033194   -0.00013858
     atom   40 type  1   force =     0.00013937   -0.00013322   -0.00046657
     atom   41 type  1   force =    -0.00022784   -0.00010010   -0.00045986
     atom   42 type  1   force =     0.00010461   -0.00015056   -0.00019586
     atom   43 type  2   force =    -0.00009416   -0.00051872    0.00018650
     atom   44 type  2   force =     0.00000223   -0.00001821    0.00032952
     atom   45 type  2   force =    -0.00002058   -0.00002722   -0.00020449
     atom   46 type  1   force =     0.00040197   -0.00052818   -0.00036301
     atom   47 type  1   force =    -0.00010266    0.00023193    0.00027614
     atom   48 type  1   force =     0.00010663   -0.00003765    0.00004286
     atom   49 type  1   force =    -0.00034696    0.00010876    0.00039058
     atom   50 type  1   force =    -0.00018158    0.00044773    0.00003966
     atom   51 type  1   force =    -0.00017725   -0.00011156    0.00038263
     atom   52 type  2   force =     0.00005728    0.00034685   -0.00046761
     atom   53 type  2   force =    -0.00017159   -0.00008205   -0.00012713
     atom   54 type  2   force =     0.00007748    0.00010569    0.00055569
     atom   55 type  1   force =     0.00012951    0.00019131    0.00013483
     atom   56 type  1   force =     0.00015713   -0.00000017   -0.00047172
     atom   57 type  1   force =     0.00040164    0.00021210    0.00018143
     atom   58 type  1   force =    -0.00022798    0.00010038   -0.00045955
     atom   59 type  1   force =    -0.00012990    0.00005430   -0.00012035
     atom   60 type  1   force =    -0.00007189    0.00000014   -0.00042771
     atom   61 type  2   force =    -0.00007838    0.00000001    0.00001443
     atom   62 type  2   force =    -0.00002041    0.00002727   -0.00020451
     atom   63 type  2   force =     0.00005268   -0.00008644    0.00053443
     atom   64 type  1   force =     0.00027194    0.00022911   -0.00032202
     atom   65 type  1   force =     0.00061460   -0.00000015    0.00007144
     atom   66 type  1   force =     0.00040218    0.00052850   -0.00036274
     atom   67 type  1   force =    -0.00018184   -0.00044737    0.00003987
     atom   68 type  1   force =    -0.00003343    0.00040955   -0.00037255
     atom   69 type  1   force =     0.00003602    0.00000005    0.00031285
     atom   70 type  2   force =     0.00003603    0.00000008   -0.00067486
     atom   71 type  2   force =     0.00007759   -0.00010548    0.00055585
     atom   72 type  2   force =     0.00029173    0.00002996   -0.00021363
     atom   73 type  3   force =    -0.00017281   -0.00000274    0.00038047
     atom   74 type  4   force =     0.00020834   -0.00010633    0.00039509
     atom   75 type  4   force =     0.00020805    0.00010886    0.00039365
     atom   76 type  4   force =    -0.00038850    0.00000012    0.00006208
     atom   77 type  4   force =    -0.00004038    0.00000002   -0.00014254

     Total force =     0.004084     Total SCF correction =     0.000052
     Energy error            =      3.8E-05 Ry
     Gradient error          =      8.2E-04 Ry/Bohr

     bfgs converged in  28 scf cycles and  27 bfgs steps
     (criteria: energy <  1.0E-04 Ry, force <  1.0E-03 Ry/Bohr)

     End of BFGS Geometry Optimization

     Final energy             =  -12616.4750214358 Ry

     File tmp/CH4-H22_Rot45_ontop_/CH4-H22_Rot45_ontop_.bfgs deleted, as requested
Begin final coordinates

ATOMIC_POSITIONS (angstrom)
Cr              -1.5831530703        2.7684736328        8.2213294841
Cr               3.1981337879       -0.0010153487        8.2294285223
Cr               0.7832017608        1.3571094297        8.2261281120
Cr               1.6416612484        2.8229835969        6.0945865713
Cr              -0.7393074501        1.2884668195        6.0940607680
Cr               1.4982225830       -0.0011225629        6.1004486226
N                0.0078925790       -0.0067077467        5.0558416905
N                2.3812515503        1.3711207527        7.0854132354
N                0.0083510251        2.7453158753        7.0709387971
Cr              -1.6649538234        2.8497116970       12.4941640575
Cr               3.2946496165        0.0004994472       12.4978895745
Cr               0.7103717770        1.2198303639       12.4887786233
Cr               1.5856756689        2.7703619691       10.4376300944
Cr              -0.7695010274        1.3618871670       10.4256747965
Cr               1.5638418029       -0.0007264714       10.4157119009
N                0.0051426666        0.0086043670        9.3086706927
N                2.3670183641        1.3721934467       11.5392162926
N                0.0153423434        2.7553624627       11.5807265472
Cr              -3.9628653850        6.8852772869        8.2303346266
Cr               0.8259925033        4.1148064946        8.2203952965
Cr              -1.5831531956        5.4611395617        8.2213294068
Cr              -0.7393075850        6.9411465935        6.0940614316
Cr              -3.1196154827        5.4052011976        6.1057073654
Cr              -0.8806452944        4.1148063767        6.0868773589
N               -2.3805353538        4.1148063221        5.0566366874
N                0.0083510652        5.4842967928        7.0709381523
N               -2.3668679780        6.8562984217        7.0845030639
Cr              -4.0125092494        6.9610648598       12.5034232801
Cr               0.8696538531        4.1148054479       12.6138262393
Cr              -1.6649520598        5.3799029329       12.4941658159
Cr              -0.7695008359        6.8677262547       10.4256755917
Cr              -3.1405335553        5.4715724484       10.4064908455
Cr              -0.7923669211        4.1148070747       10.4351508660
N               -2.3506385968        4.1148064978        9.3139821794
N                0.0153435029        5.4742504998       11.5807278531
N               -2.3694277661        6.8646562217       11.5321866082
Cr               3.1537272335        2.7662794091        8.2324165827
Cr               7.9495033456        0.0010176055        8.2294293658
Cr               5.5398728813        1.3443358688        8.2303345847
Cr               6.3831239987        2.8244111746        6.1057068073
Cr               4.0140661005        1.2937897437        6.1039706967
Cr               6.2495930289        0.0011255944        6.1004477016
N                4.7592618565        0.0067106474        5.0558419738
N                7.1358715744        1.3733141832        7.0845037561
N                4.7554809085        2.7426265842        7.0985146701
Cr               3.1449631026        2.8188234922       12.4689730850
Cr               8.0460166707       -0.0004965851       12.4978903508
Cr               5.4902303639        1.2685487139       12.5034242828
Cr               6.3622046149        2.7580403433       10.4064898249
Cr               3.9721899134        1.3497255469       10.4236702907
Cr               6.3152106577        0.0007284548       10.4157123414
N                4.7565120480       -0.0086016598        9.3086701979
N                7.1333114263        1.3649566251       11.5321856916
N                4.7742504595        2.7456064283       11.5226612423
Cr               0.7832006610        6.8725029218        8.2261278415
Cr               5.5752739825        4.1148067946        8.2386123308
Cr               3.1537277601        5.4633335373        8.2324169525
Cr               4.0140661789        6.9358225630        6.1039698715
Cr               1.6416614684        5.4066288584        6.0945863866
Cr               3.8790544975        4.1148060779        6.1078523082
N                2.3936439783        4.1148060976        5.0563011731
N                4.7554804252        5.4869863298        7.0985145144
N                2.3812513834        6.8584921857        7.0854130511
Cr               0.7103710761        7.0097818673       12.4887814953
Cr               5.7024455693        4.1148065644       12.4933617875
Cr               3.1449615646        5.4107867762       12.4689711553
Cr               3.9721899442        6.8798862790       10.4236700683
Cr               1.5856748588        5.4592509588       10.4376288434
Cr               3.9485406043        4.1148060469       10.4105011980
N                2.3705976804        4.1148062793        9.3213669309
N                4.7742502737        5.4840059158       11.5226609033
N                2.3670178720        6.8574191550       11.5392168537
C                0.8012852274        4.1148047445       15.1680552899
H                0.9422548113        5.0250768567       15.7591140131
H                0.9422544848        3.2045265306       15.7591091056
H               -0.2148556029        4.1148053052       14.7411086070
H                1.6522532075        4.1148068102       14.4106875814
End final coordinates



     Writing all to output data dir tmp/CH4-H22_Rot45_ontop_/CH4-H22_Rot45_ontop_.save/ :
     XML data file, charge density, pseudopotentials, collected wavefunctions
 
     init_run     :     18.39s CPU     19.19s WALL (       1 calls)
     electrons    :  46746.63s CPU  48019.65s WALL (      28 calls)
     update_pot   :     34.50s CPU     36.00s WALL (      27 calls)
     forces       :    286.86s CPU    297.12s WALL (      28 calls)
     force_dftd3  :      5.88s CPU      6.26s WALL (      28 calls)

     Called by init_run:
     wfcinit      :     14.14s CPU     14.52s WALL (       1 calls)
     potinit      :      1.04s CPU      1.19s WALL (       1 calls)
     hinit0       :      0.35s CPU      0.43s WALL (       1 calls)

     Called by electrons:
     c_bands      :  38408.63s CPU  39223.35s WALL (    1198 calls)
     sum_band     :   6554.64s CPU   6792.84s WALL (    1198 calls)
     v_of_rho     :    696.48s CPU    745.89s WALL (    1207 calls)
     newd         :    516.70s CPU    668.06s WALL (    1207 calls)
     PAW_pot      :    437.91s CPU    443.95s WALL (    1234 calls)
     mix_rho      :     97.50s CPU    105.18s WALL (    1198 calls)
     energy_dftd3 :      3.19s CPU      3.21s WALL (      28 calls)

     Called by c_bands:
     init_us_2    :    685.28s CPU    694.68s WALL (    7356 calls)
     cegterg      :  36163.98s CPU  36958.30s WALL (    3594 calls)

     Called by *egterg:
     cdiaghg      :   1266.75s CPU   1281.69s WALL (   12114 calls)
     h_psi        :  17650.68s CPU  17992.78s WALL (   12255 calls)
     s_psi        :   4223.34s CPU   4265.95s WALL (   12255 calls)
     g_psi        :     83.23s CPU     84.28s WALL (    8658 calls)

     Called by h_psi:
     h_psi:calbec :   4263.16s CPU   4308.14s WALL (   12255 calls)
     vloc_psi     :   9010.74s CPU   9162.85s WALL (   12255 calls)
                                        0.00s GPU  (   12255 calls)
     add_vuspsi   :   4234.12s CPU   4277.95s WALL (   12255 calls)

     General routines
     calbec       :   6471.85s CPU   6538.96s WALL (   16266 calls)
     fft          :    551.19s CPU    595.83s WALL (   15989 calls)
     ffts         :      7.18s CPU      8.23s WALL (    2405 calls)
     fftw         :   8981.94s CPU   9126.02s WALL ( 9009490 calls)
     interpolate  :     41.19s CPU     45.28s WALL (    1207 calls)
 
     Parallel routines
 
     PWSCF        :     13h 6m CPU     13h27m WALL

 
   This run was terminated on:  10:10:17   9Jun2026            

=------------------------------------------------------------------------------=
   JOB DONE.
=------------------------------------------------------------------------------=
