
     Program PWSCF v.7.5 starts on 15May2026 at  4:50:17 

     This program is part of the open-source Quantum ESPRESSO suite
     for quantum simulation of materials; please cite
         "P. Giannozzi et al., J. Phys.:Condens. Matter 21 395502 (2009);
         "P. Giannozzi et al., J. Phys.:Condens. Matter 29 465901 (2017);
         "P. Giannozzi et al., J. Chem. Phys. 152 154105 (2020);
          URL http://www.quantum-espresso.org", 
     in publications or presentations arising from this work. More details at
     http://www.quantum-espresso.org/quote

     Parallel version (MPI & OpenMP), running on      64 processor cores
     Number of MPI processes:                64
     Threads/MPI process:                     1

     MPI processes distributed on     1 nodes
     309263 MiB available memory on the printing compute node when the environment starts
 
     Reading input from pw-CH4-H22_Rot0_hollow__restart.in
Warning: card &CELL ignored

     Current dimensions of program PWSCF are:
     Max number of different atomic species (ntypx) = 10
     Max number of k-points (npk) =  40000
     Max angular momentum in pseudopotentials (lmaxx) =  4
     file Cr.pbe-spn-kjpaw_psl.1.0.0.UPF: wavefunction(s)  3S 3P 3D renormalized
     file N.pbe-n-kjpaw_psl.1.0.0.UPF: wavefunction(s)  2S renormalized
     file C.pbe-n-kjpaw_psl.1.0.0.UPF: wavefunction(s)  2S 2P renormalized
     file H.pbe-kjpaw_psl.1.0.0.UPF: wavefunction(s)  1S renormalized
 
     K-points division:     npool     =       4
     R & G space division:  proc/nbgrp/npool/nimage =      16
     Subspace diagonalization in iterative solution of the eigenvalue problem:
     one sub-group per band group will be used
     scalapack distributed-memory algorithm (size of sub-group:  4*  4 procs)

 
     Parallelization info
     --------------------
     sticks:   dense  smooth     PW     G-vecs:    dense   smooth      PW
     Min        1166     388    102               281408    54158    7274
     Max        1167     389    103               281417    54165    7281
     Sum       18661    6217   1639              4502593   866593  116429
 
     Using Slab Decomposition
 


     bravais-lattice index     =            0
     lattice parameter (alat)  =      17.9576  a.u.
     unit-cell volume          =   10952.5767 (a.u.)^3
     number of atoms/cell      =           77
     number of atomic types    =            4
     number of electrons       =       800.00
     number of Kohn-Sham states=          480
     kinetic-energy cutoff     =      70.0000  Ry
     charge density cutoff     =     840.0000  Ry
     scf convergence threshold =      1.0E-08
     mixing beta               =       0.2000
     number of iterations used =            8  plain     mixing
     energy convergence thresh.=      1.0E-04
     force convergence thresh. =      1.0E-03
     Exchange-correlation= SLA  PW   PBX  PBC
                           (   1   4   3   4   0   0   0)
     nstep                     =          200


     celldm(1)=  17.957575  celldm(2)=   0.000000  celldm(3)=   0.000000
     celldm(4)=   0.000000  celldm(5)=   0.000000  celldm(6)=   0.000000

     crystal axes: (cart. coord. in units of alat)
               a(1) = (   1.000000   0.000000   0.000000 )  
               a(2) = (  -0.500000   0.866025   0.000000 )  
               a(3) = (   0.000000   0.000000   2.183951 )  

     reciprocal axes: (cart. coord. in units 2 pi/alat)
               b(1) = (  1.000000  0.577351  0.000000 )  
               b(2) = (  0.000000  1.154701  0.000000 )  
               b(3) = (  0.000000  0.000000  0.457886 )  


     PseudoPot. # 1 for Cr read from file:
     /home/tomas.rojas_s/pseudo/Cr.pbe-spn-kjpaw_psl.1.0.0.UPF
     MD5 check sum: 198f1a2427a48552563eee314eba32ba
     Pseudo is Projector augmented-wave + core cor, Zval = 14.0
     Generated using &quot;atomic&quot; code by A. Dal Corso  v.6.3
     Shape of augmentation charge: PSQ
     Using radial grid of 1183 points,  6 beta functions with: 
                l(1) =   0
                l(2) =   0
                l(3) =   1
                l(4) =   1
                l(5) =   2
                l(6) =   2
     Q(r) pseudized with 0 coefficients 


     PseudoPot. # 2 for N  read from file:
     /home/tomas.rojas_s/pseudo/N.pbe-n-kjpaw_psl.1.0.0.UPF
     MD5 check sum: 14c48229446f9f2d411169a3abcbc3fa
     Pseudo is Projector augmented-wave + core cor, Zval =  5.0
     Generated using &quot;atomic&quot; code by A. Dal Corso  v.6.3
     Shape of augmentation charge: PSQ
     Using radial grid of 1085 points,  4 beta functions with: 
                l(1) =   0
                l(2) =   0
                l(3) =   1
                l(4) =   1
     Q(r) pseudized with 0 coefficients 


     PseudoPot. # 3 for C  read from file:
     /home/tomas.rojas_s/pseudo/C.pbe-n-kjpaw_psl.1.0.0.UPF
     MD5 check sum: 5f16ad9a65e90284d1d834d4ab3b0f7d
     Pseudo is Projector augmented-wave + core cor, Zval =  4.0
     Generated using &quot;atomic&quot; code by A. Dal Corso  v.6.3
     Shape of augmentation charge: PSQ
     Using radial grid of 1073 points,  4 beta functions with: 
                l(1) =   0
                l(2) =   0
                l(3) =   1
                l(4) =   1
     Q(r) pseudized with 0 coefficients 


     PseudoPot. # 4 for H  read from file:
     /home/tomas.rojas_s/pseudo/H.pbe-kjpaw_psl.1.0.0.UPF
     MD5 check sum: d81a744832360e4a8af0b0b5b123bc2a
     Pseudo is Projector augmented-wave, Zval =  1.0
     Generated using &quot;atomic&quot; code by A. Dal Corso  v.6.3MaX
     Shape of augmentation charge: PSQ
     Using radial grid of  929 points,  2 beta functions with: 
                l(1) =   0
                l(2) =   0
     Q(r) pseudized with 0 coefficients 


     atomic species   valence    mass     pseudopotential
     Cr               14.00    51.99610     Cr( 1.00)
     N                 5.00    14.00670     N ( 1.00)
     C                 4.00    12.01100     C ( 1.00)
     H                 1.00     1.00800     H ( 1.00)

     No symmetry found



   Cartesian axes

     site n.     atom                  positions (alat units)
         1        Cr     tau(   1) = (  -0.1653614   0.2969904   0.8662460  )
         2        Cr     tau(   2) = (   0.3386012   0.0058987   0.8663048  )
         3        Cr     tau(   3) = (   0.0847995   0.1484209   0.8662961  )
         4        Cr     tau(   4) = (   0.1738059   0.3030918   0.6425849  )
         5        Cr     tau(   5) = (  -0.0762691   0.1424176   0.6429846  )
         6        Cr     tau(   6) = (   0.1600454   0.0061284   0.6426459  )
         7        N      tau(   7) = (   0.0026565   0.0063623   0.5317267  )
         8        N      tau(   8) = (   0.2522043   0.1509227   0.7456184  )
         9        N      tau(   9) = (   0.0026108   0.2948784   0.7460701  )
        10        Cr     tau(  10) = (  -0.1714047   0.3062764   1.3152709  )
        11        Cr     tau(  11) = (   0.3505232   0.0050784   1.3149792  )
        12        Cr     tau(  12) = (   0.0766862   0.1336481   1.3116778  )
        13        Cr     tau(  13) = (   0.1711792   0.2969174   1.0974953  )
        14        Cr     tau(  14) = (  -0.0804270   0.1476574   1.0962834  )
        15        Cr     tau(  15) = (   0.1669477   0.0046657   1.0962386  )
        16        N      tau(  16) = (   0.0029440   0.0062758   0.9794209  )
        17        N      tau(  17) = (   0.2522424   0.1502684   1.2146291  )
        18        N      tau(  18) = (   0.0030385   0.2941132   1.2149487  )
        19        Cr     tau(  19) = (  -0.4151648   0.7300382   0.8660683  )
        20        Cr     tau(  20) = (   0.0888476   0.4390071   0.8660982  )
        21        Cr     tau(  21) = (  -0.1652336   0.5811827   0.8660074  )
        22        Cr     tau(  22) = (  -0.0760104   0.7357674   0.6426551  )
        23        Cr     tau(  23) = (  -0.3259329   0.5755375   0.6430335  )
        24        Cr     tau(  24) = (  -0.0899788   0.4392693   0.6429268  )
        25        N      tau(  25) = (  -0.2472331   0.4392607   0.5316769  )
        26        N      tau(  26) = (   0.0027189   0.5835652   0.7460484  )
        27        N      tau(  27) = (  -0.2471841   0.7280553   0.7458654  )
        28        Cr     tau(  28) = (  -0.4200099   0.7389553   1.3163029  )
        29        Cr     tau(  29) = (   0.0958904   0.4384391   1.3171719  )
        30        Cr     tau(  30) = (  -0.1713829   0.5714741   1.3167818  )
        31        Cr     tau(  31) = (  -0.0792156   0.7293801   1.0969218  )
        32        Cr     tau(  32) = (  -0.3278994   0.5810257   1.0961125  )
        33        Cr     tau(  33) = (  -0.0825725   0.4389490   1.0975586  )
        34        N      tau(  34) = (  -0.2470600   0.4388037   0.9799698  )
        35        N      tau(  35) = (   0.0033832   0.5831177   1.2167218  )
        36        N      tau(  36) = (  -0.2470132   0.7271793   1.2146974  )
        37        Cr     tau(  37) = (   0.3348292   0.2970606   0.8663331  )
        38        Cr     tau(  38) = (   0.8387668   0.0060494   0.8662189  )
        39        Cr     tau(  39) = (   0.5846840   0.1481105   0.8646535  )
        40        Cr     tau(  40) = (   0.6737849   0.3028584   0.6421138  )
        41        Cr     tau(  41) = (   0.4244951   0.1424227   0.6430731  )
        42        Cr     tau(  42) = (   0.6600608   0.0061561   0.6430497  )
        43        N      tau(  43) = (   0.5028531   0.0061774   0.5316513  )
        44        N      tau(  44) = (   0.7532178   0.1505035   0.7463229  )
        45        N      tau(  45) = (   0.5027995   0.2949315   0.7459337  )
        46        Cr     tau(  46) = (   0.3307700   0.3003909   1.3196567  )
        47        Cr     tau(  47) = (   0.8491492   0.0061175   1.3164072  )
        48        Cr     tau(  48) = (   0.5793180   0.1376327   1.3167254  )
        49        Cr     tau(  49) = (   0.6698493   0.2965678   1.0972414  )
        50        Cr     tau(  50) = (   0.4203229   0.1487662   1.0974977  )
        51        Cr     tau(  51) = (   0.6661146   0.0071271   1.0961794  )
        52        N      tau(  52) = (   0.5020168   0.0061364   0.9807255  )
        53        N      tau(  53) = (   0.7522155   0.1502312   1.2149008  )
        54        N      tau(  54) = (   0.5012475   0.2952247   1.2176377  )
        55        Cr     tau(  55) = (   0.0845857   0.7297070   0.8667991  )
        56        Cr     tau(  56) = (   0.5882780   0.4388245   0.8663965  )
        57        Cr     tau(  57) = (   0.3346237   0.5807684   0.8662203  )
        58        Cr     tau(  58) = (   0.4239932   0.7360386   0.6429023  )
        59        Cr     tau(  59) = (   0.1738318   0.5756479   0.6428482  )
        60        Cr     tau(  60) = (   0.4102139   0.4391180   0.6425843  )
        61        N      tau(  61) = (   0.2523648   0.4397590   0.5316223  )
        62        N      tau(  62) = (   0.5027118   0.5834783   0.7459051  )
        63        N      tau(  63) = (   0.2524447   0.7273649   0.7458905  )
        64        Cr     tau(  64) = (   0.0771566   0.7423657   1.3159247  )
        65        Cr     tau(  65) = (   0.6035443   0.4385204   1.3159001  )
        66        Cr     tau(  66) = (   0.3326311   0.5774229   1.3105093  )
        67        Cr     tau(  67) = (   0.4206437   0.7296374   1.0971505  )
        68        Cr     tau(  68) = (   0.1697332   0.5814756   1.0963643  )
        69        Cr     tau(  69) = (   0.4174913   0.4379750   1.0969086  )
        70        N      tau(  70) = (   0.2529116   0.4386282   0.9801958  )
        71        N      tau(  71) = (   0.5054209   0.5824691   1.2137758  )
        72        N      tau(  72) = (   0.2508798   0.7296584   1.2137298  )
        73        C      tau(  73) = (   0.2115063   0.3466512   1.5912243  )
        74        H      tau(  74) = (   0.2843701   0.4133959   1.6610376  )
        75        H      tau(  75) = (   0.1356354   0.2785853   1.6613817  )
        76        H      tau(  76) = (   0.1457761   0.4287500   1.5276554  )
        77        H      tau(  77) = (   0.2789818   0.2680933   1.5184627  )

     --------------------------------------------
     DFT-D3 Dispersion Correction (3-body terms):
     --------------------------------------------
       Reference C6 values for interpolation: 

         atom   Coordination number   C6
         H          0.912             6.05
         H          0.000            15.18
         C          0.000            98.23
         C          0.987            86.49
         C          1.998            58.72
         C          2.999            51.56
         C          3.984            36.41
         N          0.000            50.54
         N          0.994            44.25
         N          2.014            39.35
         N          2.990            31.16
         Cr         0.000          1381.48
         Cr         1.827           571.38
         Cr        10.619           306.69

       Values used:

         atom   Coordination number  R0_AB[au]  C6      C8
         Cr        12.607            3.252    306.69  28303.74
         Cr        12.613            3.252    306.69  28303.74
         Cr        12.607            3.252    306.69  28303.74
         Cr        10.054            3.252    306.69  28303.74
         Cr        10.075            3.252    306.69  28303.74
         Cr        10.058            3.252    306.69  28303.74
         N          3.045            2.478     31.27    689.90
         N          6.016            2.478     31.16    687.49
         N          6.019            2.478     31.16    687.49
         Cr         9.069            3.252    306.69  28303.74
         Cr         9.105            3.252    306.69  28303.74
         Cr         8.985            3.252    306.69  28303.74
         Cr        12.628            3.252    306.69  28303.74
         Cr        12.698            3.252    306.69  28303.74
         Cr        12.706            3.252    306.69  28303.74
         N          6.045            2.478     31.16    687.49
         N          6.027            2.478     31.16    687.49
         N          6.024            2.478     31.16    687.49
         Cr        12.623            3.252    306.69  28303.74
         Cr        12.621            3.252    306.69  28303.74
         Cr        12.628            3.252    306.69  28303.74
         Cr        10.075            3.252    306.69  28303.74
         Cr        10.078            3.252    306.69  28303.74
         Cr        10.077            3.252    306.69  28303.74
         N          3.045            2.478     31.27    689.90
         N          6.019            2.478     31.16    687.49
         N          6.019            2.478     31.16    687.49
         Cr         9.094            3.252    306.69  28303.74
         Cr         9.172            3.252    306.69  28303.74
         Cr         9.070            3.252    306.69  28303.74
         Cr        12.729            3.252    306.69  28303.74
         Cr        12.709            3.252    306.69  28303.74
         Cr        12.703            3.252    306.69  28303.74
         N          6.044            2.478     31.16    687.49
         N          6.023            2.478     31.16    687.49
         N          6.034            2.478     31.16    687.49
         Cr        12.626            3.252    306.69  28303.74
         Cr        12.619            3.252    306.69  28303.74
         Cr        12.617            3.252    306.69  28303.74
         Cr        10.077            3.252    306.69  28303.74
         Cr        10.076            3.252    306.69  28303.74
         Cr        10.088            3.252    306.69  28303.74
         N          3.045            2.478     31.27    689.90
         N          6.021            2.478     31.16    687.49
         N          6.021            2.478     31.16    687.49
         Cr         9.322            3.252    306.69  28303.74
         Cr         9.092            3.252    306.69  28303.74
         Cr         9.082            3.252    306.69  28303.74
         Cr        12.706            3.252    306.69  28303.74
         Cr        12.714            3.252    306.69  28303.74
         Cr        12.703            3.252    306.69  28303.74
         N          6.045            2.478     31.16    687.49
         N          6.032            2.478     31.16    687.49
         N          6.022            2.478     31.16    687.49
         Cr        12.632            3.252    306.69  28303.74
         Cr        12.623            3.252    306.69  28303.74
         Cr        12.607            3.252    306.69  28303.74
         Cr        10.067            3.252    306.69  28303.74
         Cr        10.075            3.252    306.69  28303.74
         Cr        10.067            3.252    306.69  28303.74
         N          3.044            2.478     31.27    689.90
         N          6.017            2.478     31.16    687.49
         N          6.017            2.478     31.16    687.49
         Cr         8.939            3.252    306.69  28303.74
         Cr         8.917            3.252    306.69  28303.74
         Cr         9.071            3.252    306.69  28303.74
         Cr        12.716            3.252    306.69  28303.74
         Cr        12.656            3.252    306.69  28303.74
         Cr        12.642            3.252    306.69  28303.74
         N          6.044            2.478     31.16    687.49
         N          6.026            2.478     31.16    687.49
         N          6.028            2.478     31.16    687.49
         C          4.062            2.750     36.56   1057.37
         H          0.983            2.062      6.20     74.91
         H          0.972            2.062      6.21     75.06
         H          1.201            2.062      6.08     73.54
         H          1.301            2.062      6.07     73.35

         Molecular C6 ( Ry / a.u.^6 ) =    974416.24


     number of k points=    10  Methfessel-Paxton smearing, width (Ry)=  0.0200
                       cart. coord. in units 2pi/alat
        k(    1) = (   0.0000000   0.0000000   0.0000000), wk =   0.1250000
        k(    2) = (   0.0000000   0.2886753   0.0000000), wk =   0.2500000
        k(    3) = (   0.0000000  -0.5773505   0.0000000), wk =   0.1250000
        k(    4) = (   0.2500000   0.4330129   0.0000000), wk =   0.2500000
        k(    5) = (  -0.2500000   0.1443376   0.0000000), wk =   0.2500000
        k(    6) = (   0.2500000   0.1443376   0.0000000), wk =   0.2500000
        k(    7) = (   0.5000000  -0.2886753   0.0000000), wk =   0.1250000
        k(    8) = (  -0.5000000  -0.2886753   0.0000000), wk =   0.1250000
        k(    9) = (  -0.2500000   0.4330129   0.0000000), wk =   0.2500000
        k(   10) = (   0.5000000  -0.0000000   0.0000000), wk =   0.2500000

     Dense  grid:  4502593 G-vectors     FFT dimensions: ( 180, 180, 375)

     Smooth grid:   866593 G-vectors     FFT dimensions: (  96,  96, 216)

     Estimated max dynamical RAM per process >     867.27 MB

     Estimated total dynamical RAM >      50.98 GB

     Initial potential from superposition of free atoms

     starting charge     799.9627, renormalised to     800.0000

     negative rho (up, down):  3.721E-04 0.000E+00
     Starting wfcs are  584 randomized atomic wfcs
     Checking if some PAW data can be deallocated... 

     total cpu time spent up to now is       20.3 secs

     Self-consistent Calculation

     iteration #  1     ecut=    70.00 Ry     beta= 0.20
     Davidson diagonalization with overlap
     ethr =  1.00E-02,  avg # of iterations =  2.6

     negative rho (up, down):  1.465E-04 0.000E+00

     total cpu time spent up to now is       66.4 secs

     total energy              =  -12611.03525695 Ry
     estimated scf accuracy    <      28.10820836 Ry

     iteration #  2     ecut=    70.00 Ry     beta= 0.20
     Davidson diagonalization with overlap
     ethr =  3.51E-03,  avg # of iterations =  6.6

     negative rho (up, down):  4.282E-04 0.000E+00

     total cpu time spent up to now is      122.7 secs

     total energy              =  -12600.97000269 Ry
     estimated scf accuracy    <     698.02881910 Ry

     iteration #  3     ecut=    70.00 Ry     beta= 0.20
     Davidson diagonalization with overlap
     ethr =  3.51E-03,  avg # of iterations =  4.0

     negative rho (up, down):  6.386E-04 0.000E+00

     total cpu time spent up to now is      165.9 secs

     total energy              =  -12608.29751301 Ry
     estimated scf accuracy    <     549.13213924 Ry

     iteration #  4     ecut=    70.00 Ry     beta= 0.20
     Davidson diagonalization with overlap
     ethr =  3.51E-03,  avg # of iterations =  2.0

     negative rho (up, down):  2.974E-04 0.000E+00

     total cpu time spent up to now is      206.2 secs

     total energy              =  -12615.17941407 Ry
     estimated scf accuracy    <      62.25762297 Ry

     iteration #  5     ecut=    70.00 Ry     beta= 0.20
     Davidson diagonalization with overlap
     ethr =  3.51E-03,  avg # of iterations =  1.1

     negative rho (up, down):  3.994E-04 0.000E+00

     total cpu time spent up to now is      242.9 secs

     total energy              =  -12615.70500876 Ry
     estimated scf accuracy    <      16.02170294 Ry

     iteration #  6     ecut=    70.00 Ry     beta= 0.20
     Davidson diagonalization with overlap
     ethr =  2.00E-03,  avg # of iterations =  1.9

     negative rho (up, down):  4.408E-04 0.000E+00

     total cpu time spent up to now is      283.0 secs

     total energy              =  -12616.28817096 Ry
     estimated scf accuracy    <       1.93624384 Ry

     iteration #  7     ecut=    70.00 Ry     beta= 0.20
     Davidson diagonalization with overlap
     ethr =  2.42E-04,  avg # of iterations =  9.9

     negative rho (up, down):  4.334E-04 0.000E+00

     total cpu time spent up to now is      339.2 secs

     total energy              =  -12616.40038943 Ry
     estimated scf accuracy    <       3.21342080 Ry

     iteration #  8     ecut=    70.00 Ry     beta= 0.20
     Davidson diagonalization with overlap
     ethr =  2.42E-04,  avg # of iterations =  1.0

     negative rho (up, down):  4.740E-04 0.000E+00

     total cpu time spent up to now is      374.7 secs

     total energy              =  -12616.43087908 Ry
     estimated scf accuracy    <       1.02443149 Ry

     iteration #  9     ecut=    70.00 Ry     beta= 0.20
     Davidson diagonalization with overlap
     ethr =  1.28E-04,  avg # of iterations =  1.1

     negative rho (up, down):  4.056E-04 0.000E+00

     total cpu time spent up to now is      411.4 secs

     total energy              =  -12616.42873600 Ry
     estimated scf accuracy    <       0.71234835 Ry

     iteration # 10     ecut=    70.00 Ry     beta= 0.20
     Davidson diagonalization with overlap
     ethr =  8.90E-05,  avg # of iterations =  1.0

     negative rho (up, down):  3.220E-04 0.000E+00

     total cpu time spent up to now is      446.9 secs

     total energy              =  -12616.42516113 Ry
     estimated scf accuracy    <       0.37385282 Ry

     iteration # 11     ecut=    70.00 Ry     beta= 0.20
     Davidson diagonalization with overlap
     ethr =  4.67E-05,  avg # of iterations =  1.5

     negative rho (up, down):  3.810E-04 0.000E+00

     total cpu time spent up to now is      486.2 secs

     total energy              =  -12616.43493898 Ry
     estimated scf accuracy    <       0.19860978 Ry

     iteration # 12     ecut=    70.00 Ry     beta= 0.20
     Davidson diagonalization with overlap
     ethr =  2.48E-05,  avg # of iterations =  1.9

     negative rho (up, down):  2.784E-04 0.000E+00

     total cpu time spent up to now is      526.5 secs

     total energy              =  -12616.43022105 Ry
     estimated scf accuracy    <       0.44678707 Ry

     iteration # 13     ecut=    70.00 Ry     beta= 0.20
     Davidson diagonalization with overlap
     ethr =  2.48E-05,  avg # of iterations =  1.0

     negative rho (up, down):  2.553E-04 0.000E+00

     total cpu time spent up to now is      562.0 secs

     total energy              =  -12616.43803812 Ry
     estimated scf accuracy    <       0.11440617 Ry

     iteration # 14     ecut=    70.00 Ry     beta= 0.20
     Davidson diagonalization with overlap
     ethr =  1.43E-05,  avg # of iterations =  1.5

     negative rho (up, down):  2.333E-04 0.000E+00

     total cpu time spent up to now is      601.3 secs

     total energy              =  -12616.43568108 Ry
     estimated scf accuracy    <       0.16204538 Ry

     iteration # 15     ecut=    70.00 Ry     beta= 0.20
     Davidson diagonalization with overlap
     ethr =  1.43E-05,  avg # of iterations =  1.0

     negative rho (up, down):  2.081E-04 0.000E+00

     total cpu time spent up to now is      636.6 secs

     total energy              =  -12616.43519541 Ry
     estimated scf accuracy    <       0.17747888 Ry

     iteration # 16     ecut=    70.00 Ry     beta= 0.20
     Davidson diagonalization with overlap
     ethr =  1.43E-05,  avg # of iterations =  1.0

     negative rho (up, down):  1.881E-04 0.000E+00

     total cpu time spent up to now is      672.1 secs

     total energy              =  -12616.43648148 Ry
     estimated scf accuracy    <       0.15524070 Ry

     iteration # 17     ecut=    70.00 Ry     beta= 0.20
     Davidson diagonalization with overlap
     ethr =  1.43E-05,  avg # of iterations =  1.0

     negative rho (up, down):  1.899E-04 0.000E+00

     total cpu time spent up to now is      707.4 secs

     total energy              =  -12616.43764186 Ry
     estimated scf accuracy    <       0.03535424 Ry

     iteration # 18     ecut=    70.00 Ry     beta= 0.20
     Davidson diagonalization with overlap
     ethr =  4.42E-06,  avg # of iterations =  2.6

     negative rho (up, down):  1.902E-04 0.000E+00

     total cpu time spent up to now is      748.4 secs

     total energy              =  -12616.43779877 Ry
     estimated scf accuracy    <       0.11274929 Ry

     iteration # 19     ecut=    70.00 Ry     beta= 0.20
     Davidson diagonalization with overlap
     ethr =  4.42E-06,  avg # of iterations =  1.0

     negative rho (up, down):  1.914E-04 0.000E+00

     total cpu time spent up to now is      783.8 secs

     total energy              =  -12616.43971400 Ry
     estimated scf accuracy    <       0.01535184 Ry

     iteration # 20     ecut=    70.00 Ry     beta= 0.20
     Davidson diagonalization with overlap
     c_bands:  1 eigenvalues not converged
     c_bands:  1 eigenvalues not converged
     ethr =  1.92E-06,  avg # of iterations = 17.5

     negative rho (up, down):  1.921E-04 0.000E+00

     total cpu time spent up to now is      835.3 secs

     total energy              =  -12616.44003063 Ry
     estimated scf accuracy    <       0.00777962 Ry

     iteration # 21     ecut=    70.00 Ry     beta= 0.20
     Davidson diagonalization with overlap
     ethr =  9.72E-07,  avg # of iterations =  3.6

     negative rho (up, down):  1.930E-04 0.000E+00

     total cpu time spent up to now is      875.0 secs

     total energy              =  -12616.44020409 Ry
     estimated scf accuracy    <       0.00207910 Ry

     iteration # 22     ecut=    70.00 Ry     beta= 0.20
     Davidson diagonalization with overlap
     ethr =  2.60E-07,  avg # of iterations =  2.0

     negative rho (up, down):  1.972E-04 0.000E+00

     total cpu time spent up to now is      915.4 secs

     total energy              =  -12616.44029431 Ry
     estimated scf accuracy    <       0.00382817 Ry

     iteration # 23     ecut=    70.00 Ry     beta= 0.20
     Davidson diagonalization with overlap
     ethr =  2.60E-07,  avg # of iterations =  1.0

     negative rho (up, down):  1.986E-04 0.000E+00

     total cpu time spent up to now is      951.0 secs

     total energy              =  -12616.44039677 Ry
     estimated scf accuracy    <       0.00156892 Ry

     iteration # 24     ecut=    70.00 Ry     beta= 0.20
     Davidson diagonalization with overlap
     ethr =  1.96E-07,  avg # of iterations =  1.6

     negative rho (up, down):  1.977E-04 0.000E+00

     total cpu time spent up to now is      990.6 secs

     total energy              =  -12616.44042514 Ry
     estimated scf accuracy    <       0.00119324 Ry

     iteration # 25     ecut=    70.00 Ry     beta= 0.20
     Davidson diagonalization with overlap
     ethr =  1.49E-07,  avg # of iterations =  1.1

     negative rho (up, down):  1.980E-04 0.000E+00

     total cpu time spent up to now is     1027.1 secs

     total energy              =  -12616.44042100 Ry
     estimated scf accuracy    <       0.00163760 Ry

     iteration # 26     ecut=    70.00 Ry     beta= 0.20
     Davidson diagonalization with overlap
     ethr =  1.49E-07,  avg # of iterations =  1.0

     negative rho (up, down):  1.981E-04 0.000E+00

     total cpu time spent up to now is     1062.5 secs

     total energy              =  -12616.44043098 Ry
     estimated scf accuracy    <       0.00116979 Ry

     iteration # 27     ecut=    70.00 Ry     beta= 0.20
     Davidson diagonalization with overlap
     ethr =  1.46E-07,  avg # of iterations =  1.0

     negative rho (up, down):  1.992E-04 0.000E+00

     total cpu time spent up to now is     1097.8 secs

     total energy              =  -12616.44043629 Ry
     estimated scf accuracy    <       0.00287908 Ry

     iteration # 28     ecut=    70.00 Ry     beta= 0.20
     Davidson diagonalization with overlap
     ethr =  1.46E-07,  avg # of iterations =  1.0

     negative rho (up, down):  1.993E-04 0.000E+00

     total cpu time spent up to now is     1133.3 secs

     total energy              =  -12616.44048729 Ry
     estimated scf accuracy    <       0.00008914 Ry

     iteration # 29     ecut=    70.00 Ry     beta= 0.20
     Davidson diagonalization with overlap
     ethr =  1.11E-08,  avg # of iterations =  5.7

     negative rho (up, down):  1.985E-04 0.000E+00

     total cpu time spent up to now is     1176.5 secs

     total energy              =  -12616.44048502 Ry
     estimated scf accuracy    <       0.00045876 Ry

     iteration # 30     ecut=    70.00 Ry     beta= 0.20
     Davidson diagonalization with overlap
     ethr =  1.11E-08,  avg # of iterations =  2.0

     negative rho (up, down):  1.984E-04 0.000E+00

     total cpu time spent up to now is     1216.7 secs

     total energy              =  -12616.44048843 Ry
     estimated scf accuracy    <       0.00048289 Ry

     iteration # 31     ecut=    70.00 Ry     beta= 0.20
     Davidson diagonalization with overlap
     ethr =  1.11E-08,  avg # of iterations =  1.7

     negative rho (up, down):  1.984E-04 0.000E+00

     total cpu time spent up to now is     1256.6 secs

     total energy              =  -12616.44049660 Ry
     estimated scf accuracy    <       0.00014089 Ry

     iteration # 32     ecut=    70.00 Ry     beta= 0.20
     Davidson diagonalization with overlap
     ethr =  1.11E-08,  avg # of iterations =  1.0

     negative rho (up, down):  1.983E-04 0.000E+00

     total cpu time spent up to now is     1292.0 secs

     total energy              =  -12616.44049598 Ry
     estimated scf accuracy    <       0.00002461 Ry

     iteration # 33     ecut=    70.00 Ry     beta= 0.20
     Davidson diagonalization with overlap
     ethr =  3.08E-09,  avg # of iterations =  6.0

     negative rho (up, down):  1.981E-04 0.000E+00

     total cpu time spent up to now is     1337.3 secs

     total energy              =  -12616.44049405 Ry
     estimated scf accuracy    <       0.00022535 Ry

     iteration # 34     ecut=    70.00 Ry     beta= 0.20
     Davidson diagonalization with overlap
     ethr =  3.08E-09,  avg # of iterations =  2.3

     negative rho (up, down):  1.981E-04 0.000E+00

     total cpu time spent up to now is     1377.9 secs

     total energy              =  -12616.44049971 Ry
     estimated scf accuracy    <       0.00001583 Ry

     iteration # 35     ecut=    70.00 Ry     beta= 0.20
     Davidson diagonalization with overlap
     ethr =  1.98E-09,  avg # of iterations =  2.0

     negative rho (up, down):  1.979E-04 0.000E+00

     total cpu time spent up to now is     1418.3 secs

     total energy              =  -12616.44050007 Ry
     estimated scf accuracy    <       0.00001361 Ry

     iteration # 36     ecut=    70.00 Ry     beta= 0.20
     Davidson diagonalization with overlap
     ethr =  1.70E-09,  avg # of iterations =  2.7

     negative rho (up, down):  1.977E-04 0.000E+00

     total cpu time spent up to now is     1459.2 secs

     total energy              =  -12616.44049992 Ry
     estimated scf accuracy    <       0.00002859 Ry

     iteration # 37     ecut=    70.00 Ry     beta= 0.20
     Davidson diagonalization with overlap
     ethr =  1.70E-09,  avg # of iterations =  1.3

     negative rho (up, down):  1.977E-04 0.000E+00

     total cpu time spent up to now is     1496.8 secs

     total energy              =  -12616.44050045 Ry
     estimated scf accuracy    <       0.00001981 Ry

     iteration # 38     ecut=    70.00 Ry     beta= 0.20
     Davidson diagonalization with overlap
     ethr =  1.70E-09,  avg # of iterations =  1.1

     negative rho (up, down):  1.977E-04 0.000E+00

     total cpu time spent up to now is     1533.6 secs

     total energy              =  -12616.44050069 Ry
     estimated scf accuracy    <       0.00000285 Ry

     iteration # 39     ecut=    70.00 Ry     beta= 0.20
     Davidson diagonalization with overlap
     ethr =  3.56E-10,  avg # of iterations =  3.1

     negative rho (up, down):  1.977E-04 0.000E+00

     total cpu time spent up to now is     1575.5 secs

     total energy              =  -12616.44050054 Ry
     estimated scf accuracy    <       0.00001176 Ry

     iteration # 40     ecut=    70.00 Ry     beta= 0.20
     Davidson diagonalization with overlap
     ethr =  3.56E-10,  avg # of iterations =  1.0

     negative rho (up, down):  1.976E-04 0.000E+00

     total cpu time spent up to now is     1611.1 secs

     total energy              =  -12616.44050053 Ry
     estimated scf accuracy    <       0.00001185 Ry

     iteration # 41     ecut=    70.00 Ry     beta= 0.20
     Davidson diagonalization with overlap
     ethr =  3.56E-10,  avg # of iterations =  1.3

     negative rho (up, down):  1.976E-04 0.000E+00

     total cpu time spent up to now is     1649.0 secs

     total energy              =  -12616.44050063 Ry
     estimated scf accuracy    <       0.00000256 Ry

     iteration # 42     ecut=    70.00 Ry     beta= 0.20
     Davidson diagonalization with overlap
     ethr =  3.20E-10,  avg # of iterations =  1.0

     negative rho (up, down):  1.976E-04 0.000E+00

     total cpu time spent up to now is     1684.5 secs

     total energy              =  -12616.44050060 Ry
     estimated scf accuracy    <       0.00000357 Ry

     iteration # 43     ecut=    70.00 Ry     beta= 0.20
     Davidson diagonalization with overlap
     ethr =  3.20E-10,  avg # of iterations =  1.0

     negative rho (up, down):  1.976E-04 0.000E+00

     total cpu time spent up to now is     1720.1 secs

     total energy              =  -12616.44050055 Ry
     estimated scf accuracy    <       0.00000693 Ry

     iteration # 44     ecut=    70.00 Ry     beta= 0.20
     Davidson diagonalization with overlap
     ethr =  3.20E-10,  avg # of iterations =  1.0

     negative rho (up, down):  1.976E-04 0.000E+00

     total cpu time spent up to now is     1755.5 secs

     total energy              =  -12616.44050072 Ry
     estimated scf accuracy    <       0.00000033 Ry

     iteration # 45     ecut=    70.00 Ry     beta= 0.20
     Davidson diagonalization with overlap
     ethr =  4.13E-11,  avg # of iterations =  5.0

     negative rho (up, down):  1.975E-04 0.000E+00

     total cpu time spent up to now is     1798.1 secs

     total energy              =  -12616.44050069 Ry
     estimated scf accuracy    <       0.00000122 Ry

     iteration # 46     ecut=    70.00 Ry     beta= 0.20
     Davidson diagonalization with overlap
     ethr =  4.13E-11,  avg # of iterations =  1.0

     negative rho (up, down):  1.975E-04 0.000E+00

     total cpu time spent up to now is     1833.6 secs

     total energy              =  -12616.44050070 Ry
     estimated scf accuracy    <       0.00000030 Ry

     iteration # 47     ecut=    70.00 Ry     beta= 0.20
     Davidson diagonalization with overlap
     ethr =  3.73E-11,  avg # of iterations =  1.4

     negative rho (up, down):  1.975E-04 0.000E+00

     total cpu time spent up to now is     1872.0 secs

     total energy              =  -12616.44050070 Ry
     estimated scf accuracy    <       0.00000106 Ry

     iteration # 48     ecut=    70.00 Ry     beta= 0.20
     Davidson diagonalization with overlap
     ethr =  3.73E-11,  avg # of iterations =  1.0

     negative rho (up, down):  1.975E-04 0.000E+00

     total cpu time spent up to now is     1907.4 secs

     total energy              =  -12616.44050070 Ry
     estimated scf accuracy    <       0.00000037 Ry

     iteration # 49     ecut=    70.00 Ry     beta= 0.20
     Davidson diagonalization with overlap
     ethr =  3.73E-11,  avg # of iterations =  1.0

     negative rho (up, down):  1.975E-04 0.000E+00

     total cpu time spent up to now is     1942.9 secs

     total energy              =  -12616.44050068 Ry
     estimated scf accuracy    <       0.00000105 Ry

     iteration # 50     ecut=    70.00 Ry     beta= 0.20
     Davidson diagonalization with overlap
     ethr =  3.73E-11,  avg # of iterations =  1.0

     negative rho (up, down):  1.975E-04 0.000E+00

     total cpu time spent up to now is     1978.5 secs

     total energy              =  -12616.44050069 Ry
     estimated scf accuracy    <       0.00000105 Ry

     iteration # 51     ecut=    70.00 Ry     beta= 0.20
     Davidson diagonalization with overlap
     ethr =  3.73E-11,  avg # of iterations =  1.0

     negative rho (up, down):  1.975E-04 0.000E+00

     total cpu time spent up to now is     2013.9 secs

     total energy              =  -12616.44050070 Ry
     estimated scf accuracy    <       0.00000011 Ry

     iteration # 52     ecut=    70.00 Ry     beta= 0.20
     Davidson diagonalization with overlap
     ethr =  1.32E-11,  avg # of iterations =  1.0

     negative rho (up, down):  1.974E-04 0.000E+00

     total cpu time spent up to now is     2049.4 secs

     total energy              =  -12616.44050069 Ry
     estimated scf accuracy    <       0.00000020 Ry

     iteration # 53     ecut=    70.00 Ry     beta= 0.20
     Davidson diagonalization with overlap
     ethr =  1.32E-11,  avg # of iterations =  1.0

     negative rho (up, down):  1.975E-04 0.000E+00

     total cpu time spent up to now is     2084.8 secs

     total energy              =  -12616.44050070 Ry
     estimated scf accuracy    <       0.00000011 Ry

     iteration # 54     ecut=    70.00 Ry     beta= 0.20
     Davidson diagonalization with overlap
     ethr =  1.32E-11,  avg # of iterations =  1.0

     negative rho (up, down):  1.974E-04 0.000E+00

     total cpu time spent up to now is     2120.3 secs

     total energy              =  -12616.44050069 Ry
     estimated scf accuracy    <       0.00000010 Ry

     iteration # 55     ecut=    70.00 Ry     beta= 0.20
     Davidson diagonalization with overlap
     ethr =  1.28E-11,  avg # of iterations =  1.0

     negative rho (up, down):  1.974E-04 0.000E+00

     total cpu time spent up to now is     2155.6 secs

     total energy              =  -12616.44050069 Ry
     estimated scf accuracy    <       0.00000017 Ry

     iteration # 56     ecut=    70.00 Ry     beta= 0.20
     Davidson diagonalization with overlap
     ethr =  1.28E-11,  avg # of iterations =  1.0

     negative rho (up, down):  1.974E-04 0.000E+00

     total cpu time spent up to now is     2191.2 secs

     total energy              =  -12616.44050070 Ry
     estimated scf accuracy    <       0.00000002 Ry

     iteration # 57     ecut=    70.00 Ry     beta= 0.20
     Davidson diagonalization with overlap
     ethr =  2.69E-12,  avg # of iterations =  1.6

     negative rho (up, down):  1.974E-04 0.000E+00

     total cpu time spent up to now is     2230.5 secs

     total energy              =  -12616.44050069 Ry
     estimated scf accuracy    <       0.00000011 Ry

     iteration # 58     ecut=    70.00 Ry     beta= 0.20
     Davidson diagonalization with overlap
     ethr =  2.69E-12,  avg # of iterations =  1.7

     negative rho (up, down):  1.974E-04 0.000E+00

     total cpu time spent up to now is     2269.9 secs

     total energy              =  -12616.44050069 Ry
     estimated scf accuracy    <       0.00000007 Ry

     iteration # 59     ecut=    70.00 Ry     beta= 0.20
     Davidson diagonalization with overlap
     ethr =  2.69E-12,  avg # of iterations =  1.0

     negative rho (up, down):  1.974E-04 0.000E+00

     total cpu time spent up to now is     2305.3 secs

     total energy              =  -12616.44050069 Ry
     estimated scf accuracy    <       0.00000004 Ry

     iteration # 60     ecut=    70.00 Ry     beta= 0.20
     Davidson diagonalization with overlap
     ethr =  2.69E-12,  avg # of iterations =  1.0

     negative rho (up, down):  1.974E-04 0.000E+00

     total cpu time spent up to now is     2340.8 secs

     total energy              =  -12616.44050070 Ry
     estimated scf accuracy    <       0.00000004 Ry

     iteration # 61     ecut=    70.00 Ry     beta= 0.20
     Davidson diagonalization with overlap
     ethr =  2.69E-12,  avg # of iterations =  1.0

     negative rho (up, down):  1.974E-04 0.000E+00

     total cpu time spent up to now is     2376.0 secs

     total energy              =  -12616.44050069 Ry
     estimated scf accuracy    <       0.00000002 Ry

     iteration # 62     ecut=    70.00 Ry     beta= 0.20
     Davidson diagonalization with overlap
     ethr =  2.59E-12,  avg # of iterations =  1.0

     negative rho (up, down):  1.974E-04 0.000E+00

     total cpu time spent up to now is     2411.6 secs

     total energy              =  -12616.44050069 Ry
     estimated scf accuracy    <       0.00000001 Ry

     iteration # 63     ecut=    70.00 Ry     beta= 0.20
     Davidson diagonalization with overlap
     ethr =  1.57E-12,  avg # of iterations =  1.0

     negative rho (up, down):  1.974E-04 0.000E+00

     total cpu time spent up to now is     2446.8 secs

     End of self-consistent calculation

          k = 0.0000 0.0000 0.0000 (108303 PWs)   bands (ev):

   -66.9375 -66.9013 -66.8965 -66.8958 -66.8927 -66.8884 -66.8882 -66.8844
   -66.8676 -66.8647 -66.8634 -66.8607 -66.8569 -66.8547 -66.8539 -66.8527
   -66.8523 -66.8488 -66.8481 -66.8355 -66.8344 -66.8331 -66.8296 -66.8250
   -66.6902 -66.6670 -66.6665 -66.6659 -66.6429 -66.6418 -66.6408 -66.6297
   -66.6288 -66.6284 -66.6240 -66.6223 -66.5905 -66.5644 -66.5602 -66.5546
   -66.5515 -66.5482 -66.5134 -66.5042 -66.5030 -66.4975 -66.4969 -66.4952
   -38.7345 -38.7074 -38.7056 -38.6967 -38.6109 -38.6089 -38.6046 -38.5686
   -38.5639 -38.5544 -38.5466 -38.5451 -38.5408 -38.4973 -38.4960 -38.4937
   -38.4876 -38.4874 -38.4864 -38.4576 -38.4549 -38.4504 -38.4136 -38.4126
   -38.4102 -38.4081 -38.4067 -38.3954 -38.3942 -38.3572 -38.3506 -38.3497
   -38.3224 -38.3116 -38.3076 -38.3045 -38.3022 -38.3009 -38.2725 -38.2697
   -38.2689 -38.2491 -38.2433 -38.2414 -38.2296 -38.2267 -38.2261 -38.2238
   -38.2096 -38.2092 -38.2049 -38.2045 -38.2017 -38.1966 -38.1946 -38.1908
   -38.1811 -38.1806 -38.1761 -38.1749 -38.1747 -38.1735 -38.1623 -38.1606
   -38.1544 -38.1504 -38.1498 -38.1464 -38.1432 -38.1401 -38.1311 -38.1047
   -38.0948 -38.0903 -38.0869 -38.0829 -38.0825 -38.0759 -38.0701 -38.0651
   -38.0614 -38.0591 -38.0497 -38.0490 -38.0480 -38.0417 -38.0278 -38.0261
   -38.0229 -38.0185 -38.0180 -37.9834 -37.9787 -37.9783 -37.9759 -37.9730
   -37.9671 -37.9649 -37.9528 -37.9476 -37.9472 -37.9337 -37.9316 -37.9307
   -37.9020 -37.8996 -37.8934 -37.8860 -37.8827 -37.8768 -37.8754 -37.8748
   -37.8681 -37.8639 -37.8627 -37.8618 -37.8575 -37.8427 -37.8411 -37.8369
   -37.8350 -37.8344 -37.8330 -37.8318 -37.7997 -37.7985 -37.7977 -37.7900
   -37.7892 -37.7883 -37.7651 -37.7641 -37.7611 -37.7497 -37.7452 -37.7408
   -37.6566 -37.6245 -37.6227 -37.6038 -37.6005 -37.5788 -37.5772 -37.5704
   -12.3985 -11.9385 -11.7029 -11.6992 -11.6969 -11.5523 -11.5376 -11.5335
   -11.5031 -11.4999 -11.4915 -11.2319 -11.2266 -11.2183 -11.1833 -11.1212
   -11.1181 -11.1161 -10.8880 -10.8329  -9.1042  -9.1028  -9.1007  -9.0009
    -8.2298  -2.9056  -2.9001  -2.8974  -2.6844  -2.6700  -2.6580  -2.4555
    -2.4530  -2.4499  -2.4483  -2.4396  -2.4353  -2.3494  -2.3126  -2.3017
    -2.2876  -2.2060  -2.2023  -2.2020  -2.1704  -2.1523  -1.6790  -1.6645
    -1.6594  -1.5142  -1.4564  -1.4516  -1.4108  -1.3774  -1.3739  -1.3560
    -1.3500  -1.3429  -1.2990  -1.2695  -1.2313  -1.2197  -1.2160  -1.1988
    -1.1945  -1.1421  -1.1322  -1.1252  -0.9967  -0.9622  -0.9389  -0.8537
    -0.8410  -0.8067  -0.7964  -0.7708  -0.7589  -0.7366  -0.7237  -0.7195
    -0.7156  -0.6209  -0.5777  -0.5415  -0.5214  -0.3238  -0.2908  -0.2892
     0.6479   0.9528   0.9546   0.9554   1.2164   1.2202   1.2223   1.2279
     1.2315   1.2350   1.2353   1.2374   1.3259   1.6393   1.6484   1.6580
     1.8199   1.8302   1.8617   2.0605   2.0642   2.0691   2.1404   2.2615
     2.2751   2.2906   2.3844   2.3933   2.3975   2.4994   2.5056   2.5090
     2.5254   2.5295   2.5348   2.5630   2.5700   2.5798   2.6186   2.7752
     2.7772   2.8013   2.8080   2.8226   3.2229   3.2413   3.2497   3.3352
     3.3404   3.4093   3.4208   3.4231   3.4297   3.4410   3.4440   3.5332
     3.5504   3.5595   3.5666   3.5740   3.6569   3.7031   3.7149   3.7181
     3.7433   3.7533   3.7584   3.7829   3.7979   3.8012   3.8199   3.8253
     3.8288   3.8453   4.0397   4.0670   4.0967   4.2102   4.2166   4.2236
     4.2311   4.2386   4.3468   4.3575   4.3820   4.4103   4.4170   4.4364
     4.4582   4.4824   4.5015   4.5043   4.5097   4.5185   4.5253   4.5275
     4.5823   4.5844   4.6697   4.7311   4.7362   4.8204   4.8346   4.8440
     4.8609   4.8810   4.8894   4.8913   4.9244   4.9607   4.9704   4.9956
     5.0040   5.0276   5.0333   5.0401   5.1079   5.1657   5.1913   5.2034
     5.2594   5.2877   5.4606   5.4779   5.4836   5.4920   5.5742   5.5785
     5.6128   5.6199   5.6324   5.6442   5.6477   5.6767   5.7206   5.7307
     5.7634   5.7698   5.7727   5.7801   5.7942   5.8042   5.8240   5.8314
     5.8811   5.9188   5.9243   5.9247   5.9422   5.9464   5.9513   5.9703
     5.9906   6.0044   6.0576   6.0631   6.0768   6.0781   6.0793   6.0916
     6.1042   6.1080   6.1338   6.1453   6.1482   6.1701   6.1763   6.2055
     6.2775   6.2825   6.2931   6.3010   6.3038   6.3450   6.3510   6.3567
     6.3671   6.3725   6.3845   6.4049   6.4133   6.4470   6.4536   6.4884
     6.6569   6.6590   6.6616   6.6708   6.6765   6.6899   6.7111   6.7281
     6.7395   6.7791   6.7887   6.7944   6.8090   6.8219   6.8393   6.9198

          k = 0.0000 0.2887 0.0000 (108355 PWs)   bands (ev):

   -66.9341 -66.9110 -66.9014 -66.9006 -66.8856 -66.8832 -66.8823 -66.8777
   -66.8686 -66.8672 -66.8656 -66.8628 -66.8590 -66.8587 -66.8563 -66.8553
   -66.8488 -66.8451 -66.8430 -66.8358 -66.8353 -66.8332 -66.8300 -66.8261
   -66.6877 -66.6718 -66.6672 -66.6667 -66.6407 -66.6394 -66.6370 -66.6307
   -66.6299 -66.6281 -66.6253 -66.6235 -66.5895 -66.5664 -66.5598 -66.5556
   -66.5516 -66.5472 -66.5116 -66.5041 -66.5023 -66.4981 -66.4973 -66.4961
   -38.7306 -38.7097 -38.7025 -38.6945 -38.6052 -38.6036 -38.5986 -38.5754
   -38.5683 -38.5619 -38.5551 -38.5534 -38.5370 -38.5124 -38.5003 -38.4969
   -38.4826 -38.4797 -38.4779 -38.4572 -38.4543 -38.4441 -38.4377 -38.4295
   -38.4046 -38.4025 -38.4016 -38.3780 -38.3721 -38.3635 -38.3602 -38.3543
   -38.3181 -38.3141 -38.3096 -38.2979 -38.2899 -38.2895 -38.2730 -38.2695
   -38.2675 -38.2569 -38.2497 -38.2460 -38.2277 -38.2263 -38.2241 -38.2226
   -38.2183 -38.2139 -38.2118 -38.2043 -38.2028 -38.2010 -38.1947 -38.1936
   -38.1906 -38.1885 -38.1837 -38.1770 -38.1726 -38.1621 -38.1561 -38.1509
   -38.1503 -38.1485 -38.1445 -38.1426 -38.1357 -38.1319 -38.1270 -38.1061
   -38.0970 -38.0941 -38.0886 -38.0855 -38.0826 -38.0815 -38.0787 -38.0683
   -38.0636 -38.0613 -38.0550 -38.0505 -38.0434 -38.0404 -38.0347 -38.0310
   -38.0275 -38.0199 -37.9934 -37.9838 -37.9808 -37.9782 -37.9727 -37.9679
   -37.9645 -37.9591 -37.9491 -37.9470 -37.9458 -37.9360 -37.9340 -37.9317
   -37.9049 -37.9006 -37.8937 -37.8876 -37.8816 -37.8786 -37.8749 -37.8717
   -37.8691 -37.8648 -37.8610 -37.8594 -37.8537 -37.8448 -37.8413 -37.8382
   -37.8369 -37.8357 -37.8334 -37.8327 -37.8002 -37.7989 -37.7983 -37.7872
   -37.7863 -37.7839 -37.7734 -37.7673 -37.7585 -37.7503 -37.7462 -37.7411
   -37.6558 -37.6226 -37.6197 -37.6038 -37.5970 -37.5845 -37.5782 -37.5729
   -12.3341 -11.9051 -11.8932 -11.7530 -11.7480 -11.6107 -11.5279 -11.5174
   -11.4485 -11.4448 -11.3754 -11.2220 -11.2088 -11.1999 -11.1509 -11.1451
   -11.1348 -11.0779 -10.9223 -10.8688  -9.1058  -9.1046  -9.0856  -9.0138
    -8.2298  -2.8749  -2.8690  -2.8263  -2.7170  -2.6428  -2.6336  -2.6077
    -2.6022  -2.5986  -2.4789  -2.4718  -2.3372  -2.2804  -2.2461  -2.2396
    -2.2338  -2.2051  -2.1538  -2.0999  -2.0908  -2.0533  -1.8605  -1.6788
    -1.6660  -1.6121  -1.5355  -1.5179  -1.4733  -1.4194  -1.3810  -1.3592
    -1.3521  -1.3205  -1.2973  -1.2846  -1.2500  -1.2190  -1.2120  -1.2027
    -1.1562  -1.1372  -1.1257  -1.0299  -1.0016  -0.9489  -0.9296  -0.8918
    -0.8476  -0.8080  -0.7877  -0.7668  -0.7359  -0.7325  -0.7161  -0.6909
    -0.6692  -0.6146  -0.6011  -0.5285  -0.4965  -0.3838  -0.3365  -0.3137
     0.7438   0.9457   0.9509   0.9535   1.1842   1.1851   1.1896   1.2059
     1.2431   1.2459   1.2525   1.3035   1.3840   1.6009   1.6732   1.6911
     1.8457   1.8643   1.9071   2.0696   2.0747   2.1073   2.1515   2.2261
     2.2362   2.3534   2.3685   2.3769   2.4000   2.4961   2.5040   2.5286
     2.5341   2.5387   2.5899   2.6213   2.6287   2.6336   2.6805   2.7084
     2.7998   2.8159   2.8247   2.9042   3.0744   3.1470   3.2256   3.2717
     3.2787   3.2885   3.2982   3.3393   3.4364   3.4409   3.4633   3.4810
     3.4824   3.5031   3.6057   3.6311   3.6625   3.6774   3.6890   3.7379
     3.7492   3.7773   3.7871   3.7960   3.8335   3.8411   3.8654   3.9060
     4.0539   4.0691   4.0864   4.0909   4.1160   4.1270   4.1381   4.2267
     4.2416   4.2558   4.2953   4.3095   4.3296   4.3540   4.3729   4.3853
     4.4123   4.4180   4.4497   4.4659   4.4959   4.5224   4.5386   4.5422
     4.5672   4.6109   4.6312   4.7083   4.7342   4.7715   4.8075   4.8248
     4.8636   4.8930   4.9109   4.9446   4.9509   5.0059   5.0127   5.0221
     5.0366   5.0462   5.0583   5.1058   5.1429   5.1871   5.2162   5.2351
     5.2440   5.2728   5.3681   5.4072   5.4286   5.4456   5.4826   5.5367
     5.5382   5.5601   5.5617   5.5860   5.6270   5.6371   5.6577   5.6641
     5.6805   5.7591   5.7723   5.7970   5.8061   5.8283   5.8324   5.8519
     5.8713   5.8793   5.8882   5.9019   5.9137   5.9574   5.9713   5.9755
     5.9847   6.0132   6.0274   6.0404   6.0473   6.0665   6.0835   6.0958
     6.1038   6.1165   6.1309   6.1364   6.1493   6.1577   6.1867   6.2724
     6.2841   6.2970   6.3303   6.3408   6.3475   6.3538   6.3642   6.3911
     6.4061   6.4103   6.4162   6.4578   6.4802   6.4894   6.4981   6.5290
     6.5394   6.5453   6.6136   6.6243   6.6397   6.6873   6.7224   6.7298
     6.7457   6.7671   6.7844   6.8000   6.8258   6.8442   6.8917   6.8981

          k = 0.0000-0.5774 0.0000 (108310 PWs)   bands (ev):

   -66.9253 -66.9239 -66.9035 -66.9029 -66.8799 -66.8776 -66.8759 -66.8750
   -66.8725 -66.8703 -66.8656 -66.8647 -66.8610 -66.8600 -66.8593 -66.8573
   -66.8463 -66.8417 -66.8390 -66.8384 -66.8362 -66.8325 -66.8296 -66.8281
   -66.6811 -66.6805 -66.6677 -66.6673 -66.6378 -66.6369 -66.6330 -66.6323
   -66.6300 -66.6294 -66.6265 -66.6255 -66.5885 -66.5680 -66.5600 -66.5564
   -66.5514 -66.5464 -66.5097 -66.5040 -66.5013 -66.4989 -66.4980 -66.4971
   -38.7219 -38.7182 -38.6986 -38.6911 -38.5945 -38.5941 -38.5919 -38.5885
   -38.5710 -38.5685 -38.5659 -38.5627 -38.5299 -38.5280 -38.5029 -38.4995
   -38.4705 -38.4682 -38.4662 -38.4640 -38.4607 -38.4591 -38.4414 -38.4392
   -38.3929 -38.3905 -38.3845 -38.3840 -38.3741 -38.3724 -38.3577 -38.3568
   -38.3269 -38.3228 -38.2890 -38.2877 -38.2837 -38.2817 -38.2671 -38.2648
   -38.2591 -38.2583 -38.2574 -38.2512 -38.2407 -38.2380 -38.2224 -38.2219
   -38.2203 -38.2181 -38.2134 -38.2129 -38.2029 -38.2010 -38.1998 -38.1974
   -38.1950 -38.1837 -38.1810 -38.1798 -38.1766 -38.1759 -38.1500 -38.1473
   -38.1445 -38.1379 -38.1339 -38.1315 -38.1266 -38.1219 -38.1175 -38.1134
   -38.1086 -38.1065 -38.0962 -38.0909 -38.0808 -38.0788 -38.0731 -38.0715
   -38.0659 -38.0632 -38.0584 -38.0529 -38.0515 -38.0441 -38.0341 -38.0331
   -38.0285 -38.0174 -37.9867 -37.9838 -37.9808 -37.9737 -37.9707 -37.9685
   -37.9594 -37.9552 -37.9475 -37.9450 -37.9436 -37.9358 -37.9325 -37.9190
   -37.9155 -37.9033 -37.8984 -37.8912 -37.8800 -37.8767 -37.8731 -37.8721
   -37.8694 -37.8659 -37.8601 -37.8584 -37.8496 -37.8429 -37.8414 -37.8402
   -37.8388 -37.8361 -37.8357 -37.8339 -37.7999 -37.7992 -37.7916 -37.7908
   -37.7841 -37.7839 -37.7748 -37.7740 -37.7546 -37.7517 -37.7476 -37.7417
   -37.6548 -37.6199 -37.6161 -37.6011 -37.5963 -37.5921 -37.5791 -37.5751
   -12.1572 -12.1534 -11.7868 -11.7829 -11.7712 -11.7705 -11.5343 -11.5252
   -11.3714 -11.3670 -11.2581 -11.2534 -11.2290 -11.2105 -11.1780 -11.1736
   -11.0221 -11.0099 -10.9678 -10.9644  -9.1083  -9.1072  -9.0486  -9.0471
    -8.2298  -2.8407  -2.8385  -2.7410  -2.7368  -2.6752  -2.6710  -2.6686
    -2.6643  -2.5409  -2.5307  -2.4292  -2.4258  -2.2636  -2.2573  -2.2060
    -2.2031  -2.1542  -2.1516  -2.0069  -2.0016  -1.9387  -1.9200  -1.7437
    -1.7371  -1.6156  -1.6020  -1.5725  -1.5463  -1.4662  -1.4601  -1.4080
    -1.3637  -1.3425  -1.3290  -1.2855  -1.2238  -1.2147  -1.1712  -1.1506
    -1.1329  -1.1222  -1.0354  -1.0165  -0.9939  -0.9495  -0.9423  -0.9119
    -0.8914  -0.8050  -0.7879  -0.7601  -0.7396  -0.7203  -0.7048  -0.6451
    -0.6303  -0.6053  -0.5685  -0.5549  -0.4943  -0.4621  -0.3636  -0.3342
     0.8832   0.8867   0.9424   0.9458   1.1939   1.1976   1.2150   1.2165
     1.2247   1.2279   1.2638   1.2647   1.4733   1.4874   1.6944   1.7199
     1.9697   1.9807   1.9912   1.9965   2.0961   2.1129   2.1393   2.1535
     2.2688   2.2805   2.4422   2.4478   2.4523   2.4597   2.4978   2.5093
     2.5439   2.5455   2.5485   2.5524   2.6566   2.6671   2.8026   2.8134
     2.8301   2.8322   2.8915   2.8995   3.0981   3.1021   3.1104   3.1134
     3.1639   3.1702   3.2772   3.2904   3.3954   3.3998   3.4496   3.4745
     3.4932   3.4987   3.5867   3.5900   3.6711   3.6924   3.7292   3.7486
     3.7949   3.8024   3.8576   3.8689   3.9030   3.9619   3.9698   3.9736
     4.0160   4.0205   4.0419   4.0547   4.0701   4.0872   4.1890   4.2083
     4.2153   4.2226   4.3233   4.3378   4.3426   4.3725   4.3896   4.4037
     4.4134   4.4278   4.4387   4.4585   4.4744   4.5072   4.5121   4.5412
     4.5485   4.5814   4.6673   4.6766   4.6919   4.7111   4.7195   4.7284
     4.7490   4.7672   4.8758   4.9047   5.0199   5.0665   5.0693   5.0872
     5.1129   5.1265   5.1338   5.1530   5.1869   5.1971   5.2125   5.2184
     5.2538   5.2670   5.3173   5.4032   5.4216   5.4231   5.4295   5.4337
     5.4964   5.4994   5.5219   5.5865   5.6205   5.6226   5.6352   5.6502
     5.6614   5.6722   5.6873   5.7515   5.7984   5.8050   5.8260   5.8296
     5.8343   5.8561   5.8618   5.8701   5.9186   5.9236   5.9492   5.9577
     5.9623   5.9727   5.9971   6.0024   6.0462   6.0642   6.0789   6.0931
     6.1159   6.1342   6.1466   6.1709   6.2433   6.2483   6.2560   6.2644
     6.2727   6.2753   6.2998   6.3078   6.3118   6.3202   6.4251   6.4341
     6.4435   6.4566   6.4650   6.4798   6.5073   6.5131   6.5152   6.5182
     6.5335   6.5390   6.5970   6.5996   6.6854   6.6915   6.7028   6.7241
     6.7389   6.7471   6.8116   6.8161   6.9279   6.9313   6.9523   6.9626

          k = 0.2500 0.4330 0.0000 (108308 PWs)   bands (ev):

   -66.9277 -66.9177 -66.9137 -66.8916 -66.8872 -66.8788 -66.8745 -66.8740
   -66.8712 -66.8687 -66.8656 -66.8648 -66.8640 -66.8608 -66.8598 -66.8511
   -66.8501 -66.8415 -66.8401 -66.8381 -66.8353 -66.8312 -66.8307 -66.8282
   -66.6830 -66.6753 -66.6744 -66.6635 -66.6399 -66.6346 -66.6339 -66.6330
   -66.6293 -66.6279 -66.6270 -66.6264 -66.5885 -66.5678 -66.5613 -66.5547
   -66.5516 -66.5468 -66.5098 -66.5041 -66.5006 -66.4989 -66.4979 -66.4975
   -38.7230 -38.7135 -38.7061 -38.6871 -38.5974 -38.5962 -38.5871 -38.5858
   -38.5720 -38.5704 -38.5648 -38.5634 -38.5299 -38.5217 -38.5183 -38.4819
   -38.4801 -38.4701 -38.4684 -38.4636 -38.4555 -38.4518 -38.4470 -38.4413
   -38.3912 -38.3895 -38.3886 -38.3774 -38.3770 -38.3638 -38.3620 -38.3591
   -38.3506 -38.2936 -38.2919 -38.2893 -38.2878 -38.2757 -38.2750 -38.2645
   -38.2621 -38.2587 -38.2549 -38.2497 -38.2369 -38.2278 -38.2268 -38.2236
   -38.2231 -38.2186 -38.2155 -38.2130 -38.2052 -38.2040 -38.2019 -38.1944
   -38.1907 -38.1898 -38.1860 -38.1783 -38.1703 -38.1665 -38.1655 -38.1454
   -38.1404 -38.1362 -38.1331 -38.1313 -38.1271 -38.1220 -38.1190 -38.1126
   -38.1051 -38.1044 -38.1002 -38.0946 -38.0828 -38.0746 -38.0731 -38.0672
   -38.0657 -38.0623 -38.0614 -38.0557 -38.0517 -38.0470 -38.0343 -38.0306
   -38.0255 -38.0190 -37.9861 -37.9859 -37.9821 -37.9764 -37.9725 -37.9654
   -37.9634 -37.9496 -37.9484 -37.9424 -37.9376 -37.9355 -37.9320 -37.9287
   -37.9122 -37.9022 -37.8930 -37.8919 -37.8862 -37.8765 -37.8755 -37.8727
   -37.8668 -37.8631 -37.8621 -37.8601 -37.8496 -37.8446 -37.8413 -37.8401
   -37.8374 -37.8356 -37.8344 -37.8333 -37.8007 -37.7996 -37.7946 -37.7885
   -37.7869 -37.7791 -37.7782 -37.7717 -37.7551 -37.7513 -37.7476 -37.7415
   -37.6547 -37.6212 -37.6135 -37.6051 -37.5957 -37.5910 -37.5790 -37.5746
   -12.2126 -11.9985 -11.9975 -11.8101 -11.6703 -11.6668 -11.6294 -11.4574
   -11.4059 -11.3108 -11.3063 -11.3015 -11.2615 -11.2337 -11.1068 -11.0904
   -11.0564 -11.0464 -10.9884 -10.9361  -9.1226  -9.0761  -9.0750  -9.0376
    -8.2298  -2.8895  -2.7922  -2.7844  -2.7616  -2.6547  -2.6535  -2.6107
    -2.5815  -2.5196  -2.5151  -2.4871  -2.4826  -2.4361  -2.2549  -2.1250
    -2.1149  -2.1091  -2.0695  -2.0283  -2.0242  -1.9841  -1.9784  -1.8506
    -1.6817  -1.6672  -1.6097  -1.5669  -1.4960  -1.4457  -1.4234  -1.3893
    -1.3390  -1.3098  -1.2928  -1.2779  -1.2719  -1.2619  -1.2248  -1.1959
    -1.0861  -1.0738  -1.0357  -1.0326  -1.0117  -0.9801  -0.9524  -0.8595
    -0.8220  -0.8179  -0.7793  -0.7695  -0.7402  -0.7369  -0.7204  -0.6909
    -0.6382  -0.6184  -0.5904  -0.5566  -0.4581  -0.4233  -0.4017  -0.3094
     0.8521   0.9209   0.9230   0.9648   1.1648   1.1718   1.2023   1.2129
     1.2151   1.2768   1.2794   1.2836   1.4485   1.5604   1.5776   1.7659
     1.9122   2.0221   2.0250   2.0583   2.1191   2.1317   2.1397   2.1428
     2.2254   2.3044   2.3155   2.3727   2.4466   2.4492   2.4776   2.4842
     2.5242   2.5836   2.6398   2.6460   2.6620   2.7352   2.7424   2.7963
     2.8621   2.8784   2.8859   2.9119   2.9809   2.9860   3.0089   3.0893
     3.2306   3.3108   3.3526   3.3708   3.4010   3.4186   3.4328   3.4980
     3.5091   3.5176   3.5293   3.6157   3.6171   3.6283   3.7073   3.7675
     3.7787   3.7946   3.8316   3.8337   3.8708   3.9094   3.9247   3.9577
     4.0806   4.0916   4.1061   4.1257   4.1308   4.1480   4.1606   4.1840
     4.2235   4.2515   4.2796   4.2944   4.2983   4.3562   4.3616   4.3798
     4.4008   4.4309   4.4534   4.4599   4.4895   4.5019   4.5298   4.5352
     4.6126   4.6175   4.6417   4.6502   4.6597   4.6783   4.7306   4.7352
     4.7627   4.9114   4.9120   4.9365   4.9611   4.9662   4.9876   5.0024
     5.0207   5.0848   5.0983   5.1437   5.1905   5.2249   5.2481   5.2544
     5.2852   5.3216   5.3726   5.3945   5.4030   5.4143   5.4768   5.4974
     5.5048   5.5105   5.5288   5.5527   5.5709   5.5828   5.6428   5.6671
     5.6742   5.7026   5.7391   5.7972   5.7995   5.8110   5.8313   5.8378
     5.8555   5.8587   5.8640   5.8647   5.8874   5.9280   5.9390   5.9460
     5.9501   5.9643   5.9922   6.0030   6.0282   6.0401   6.0652   6.0958
     6.1114   6.1300   6.1478   6.1549   6.1786   6.1943   6.2027   6.2583
     6.2724   6.2806   6.3089   6.3172   6.3428   6.3671   6.3777   6.4048
     6.4226   6.4373   6.4451   6.4526   6.5223   6.5337   6.5590   6.5881
     6.5923   6.5977   6.6386   6.6404   6.6829   6.7103   6.7203   6.7365
     6.7401   6.7817   6.8001   6.8184   6.8296   6.8647   6.9305   6.9397

          k =-0.2500 0.1443 0.0000 (108355 PWs)   bands (ev):

   -66.9341 -66.9102 -66.9038 -66.8996 -66.8848 -66.8831 -66.8818 -66.8781
   -66.8695 -66.8664 -66.8651 -66.8630 -66.8611 -66.8582 -66.8564 -66.8546
   -66.8480 -66.8457 -66.8426 -66.8361 -66.8352 -66.8332 -66.8304 -66.8258
   -66.6877 -66.6716 -66.6676 -66.6667 -66.6404 -66.6387 -66.6378 -66.6310
   -66.6302 -66.6278 -66.6256 -66.6232 -66.5896 -66.5654 -66.5611 -66.5559
   -66.5512 -66.5471 -66.5111 -66.5046 -66.5024 -66.4983 -66.4976 -66.4955
   -38.7307 -38.7088 -38.7036 -38.6941 -38.6053 -38.6021 -38.6000 -38.5722
   -38.5705 -38.5624 -38.5557 -38.5532 -38.5385 -38.5145 -38.4998 -38.4920
   -38.4845 -38.4785 -38.4781 -38.4583 -38.4519 -38.4467 -38.4375 -38.4299
   -38.4042 -38.4025 -38.4006 -38.3773 -38.3722 -38.3649 -38.3599 -38.3532
   -38.3191 -38.3160 -38.3101 -38.2969 -38.2905 -38.2879 -38.2743 -38.2691
   -38.2674 -38.2526 -38.2511 -38.2476 -38.2282 -38.2260 -38.2252 -38.2218
   -38.2192 -38.2144 -38.2113 -38.2047 -38.2020 -38.2009 -38.1957 -38.1947
   -38.1908 -38.1882 -38.1819 -38.1762 -38.1697 -38.1649 -38.1586 -38.1517
   -38.1506 -38.1457 -38.1451 -38.1423 -38.1357 -38.1320 -38.1275 -38.1030
   -38.0984 -38.0947 -38.0905 -38.0851 -38.0832 -38.0815 -38.0799 -38.0660
   -38.0646 -38.0622 -38.0500 -38.0475 -38.0437 -38.0414 -38.0404 -38.0306
   -38.0249 -38.0207 -37.9929 -37.9830 -37.9802 -37.9794 -37.9743 -37.9665
   -37.9645 -37.9580 -37.9508 -37.9461 -37.9449 -37.9380 -37.9335 -37.9319
   -37.9051 -37.9013 -37.8913 -37.8882 -37.8850 -37.8769 -37.8750 -37.8728
   -37.8666 -37.8662 -37.8616 -37.8595 -37.8535 -37.8450 -37.8410 -37.8382
   -37.8373 -37.8356 -37.8335 -37.8318 -37.8006 -37.7983 -37.7977 -37.7882
   -37.7868 -37.7831 -37.7742 -37.7666 -37.7584 -37.7504 -37.7461 -37.7415
   -37.6564 -37.6212 -37.6209 -37.6018 -37.5985 -37.5813 -37.5780 -37.5763
   -12.3341 -11.9047 -11.8937 -11.7530 -11.7486 -11.6142 -11.5201 -11.5167
   -11.4482 -11.4426 -11.3786 -11.2258 -11.2160 -11.2007 -11.1504 -11.1435
   -11.1308 -11.0767 -10.9212 -10.8688  -9.1059  -9.1043  -9.0858  -9.0139
    -8.2298  -2.8689  -2.8669  -2.8328  -2.7225  -2.6463  -2.6325  -2.6032
    -2.6000  -2.5904  -2.4783  -2.4769  -2.3355  -2.2826  -2.2502  -2.2394
    -2.2332  -2.2110  -2.1469  -2.1032  -2.0941  -2.0493  -1.8552  -1.6809
    -1.6692  -1.6205  -1.5297  -1.5142  -1.4792  -1.4196  -1.3809  -1.3641
    -1.3412  -1.3196  -1.2934  -1.2870  -1.2525  -1.2245  -1.2112  -1.1945
    -1.1575  -1.1379  -1.1220  -1.0368  -1.0167  -0.9430  -0.9295  -0.8886
    -0.8507  -0.8036  -0.7937  -0.7678  -0.7324  -0.7280  -0.7166  -0.6913
    -0.6632  -0.6174  -0.5885  -0.5402  -0.4936  -0.3851  -0.3334  -0.3153
     0.7437   0.9456   0.9515   0.9530   1.1846   1.1865   1.1879   1.2061
     1.2432   1.2458   1.2522   1.3036   1.3842   1.6039   1.6759   1.6855
     1.8491   1.8604   1.9048   2.0721   2.0744   2.1073   2.1520   2.2158
     2.2346   2.3565   2.3729   2.3858   2.3977   2.4995   2.5052   2.5299
     2.5355   2.5405   2.5870   2.6208   2.6263   2.6376   2.6780   2.7117
     2.7968   2.8186   2.8260   2.8979   3.0766   3.1436   3.2274   3.2715
     3.2763   3.2845   3.2997   3.3418   3.4351   3.4402   3.4624   3.4725
     3.4859   3.5057   3.6093   3.6337   3.6555   3.6699   3.6882   3.7429
     3.7490   3.7768   3.7860   3.7966   3.8363   3.8449   3.8651   3.9021
     4.0632   4.0691   4.0847   4.0954   4.0975   4.1299   4.1397   4.2314
     4.2378   4.2523   4.3019   4.3090   4.3292   4.3461   4.3625   4.3782
     4.4061   4.4178   4.4573   4.4726   4.4947   4.5246   4.5385   4.5486
     4.5708   4.6123   4.6314   4.7046   4.7387   4.7970   4.8146   4.8227
     4.8466   4.8878   4.9026   4.9325   4.9513   5.0005   5.0109   5.0202
     5.0329   5.0453   5.0860   5.1059   5.1622   5.1884   5.2118   5.2350
     5.2441   5.2669   5.3682   5.3967   5.4328   5.4474   5.4885   5.5351
     5.5386   5.5602   5.5661   5.5819   5.6274   5.6336   5.6455   5.6680
     5.6722   5.7471   5.7718   5.8007   5.8146   5.8277   5.8416   5.8505
     5.8700   5.8778   5.8824   5.8973   5.9225   5.9608   5.9717   5.9775
     5.9908   6.0127   6.0332   6.0429   6.0567   6.0697   6.0819   6.0929
     6.0984   6.1197   6.1281   6.1362   6.1451   6.1605   6.1811   6.2709
     6.2865   6.2951   6.3243   6.3387   6.3526   6.3539   6.3668   6.3998
     6.4062   6.4117   6.4213   6.4538   6.4764   6.4844   6.4895   6.5249
     6.5392   6.5496   6.6145   6.6231   6.6428   6.6817   6.7215   6.7388
     6.7444   6.7737   6.7955   6.7983   6.8193   6.8441   6.8845   6.9031

          k = 0.2500 0.1443 0.0000 (108355 PWs)   bands (ev):

   -66.9341 -66.9111 -66.9016 -66.9001 -66.8864 -66.8829 -66.8820 -66.8777
   -66.8689 -66.8664 -66.8661 -66.8632 -66.8587 -66.8581 -66.8561 -66.8556
   -66.8486 -66.8461 -66.8427 -66.8360 -66.8348 -66.8329 -66.8302 -66.8261
   -66.6877 -66.6719 -66.6671 -66.6666 -66.6409 -66.6397 -66.6367 -66.6305
   -66.6297 -66.6284 -66.6251 -66.6238 -66.5895 -66.5668 -66.5587 -66.5560
   -66.5519 -66.5471 -66.5119 -66.5036 -66.5024 -66.4982 -66.4970 -66.4963
   -38.7306 -38.7100 -38.7020 -38.6948 -38.6061 -38.6027 -38.5984 -38.5764
   -38.5674 -38.5615 -38.5549 -38.5540 -38.5368 -38.5119 -38.5016 -38.4965
   -38.4826 -38.4792 -38.4782 -38.4572 -38.4545 -38.4433 -38.4384 -38.4290
   -38.4047 -38.4028 -38.4016 -38.3785 -38.3718 -38.3630 -38.3602 -38.3545
   -38.3175 -38.3138 -38.3101 -38.2980 -38.2906 -38.2894 -38.2730 -38.2700
   -38.2666 -38.2574 -38.2491 -38.2460 -38.2276 -38.2261 -38.2238 -38.2228
   -38.2187 -38.2135 -38.2122 -38.2041 -38.2031 -38.2013 -38.1948 -38.1935
   -38.1907 -38.1890 -38.1834 -38.1770 -38.1727 -38.1621 -38.1562 -38.1508
   -38.1505 -38.1483 -38.1442 -38.1426 -38.1355 -38.1316 -38.1273 -38.1065
   -38.0967 -38.0946 -38.0887 -38.0856 -38.0834 -38.0815 -38.0786 -38.0679
   -38.0635 -38.0613 -38.0548 -38.0506 -38.0424 -38.0400 -38.0353 -38.0312
   -38.0270 -38.0202 -37.9933 -37.9836 -37.9810 -37.9779 -37.9730 -37.9682
   -37.9642 -37.9599 -37.9489 -37.9471 -37.9459 -37.9360 -37.9341 -37.9313
   -37.9047 -37.9007 -37.8946 -37.8867 -37.8809 -37.8792 -37.8754 -37.8716
   -37.8688 -37.8652 -37.8605 -37.8594 -37.8538 -37.8443 -37.8417 -37.8374
   -37.8371 -37.8354 -37.8341 -37.8329 -37.7998 -37.7995 -37.7982 -37.7871
   -37.7861 -37.7841 -37.7734 -37.7673 -37.7585 -37.7504 -37.7460 -37.7411
   -37.6557 -37.6230 -37.6200 -37.6028 -37.5983 -37.5843 -37.5779 -37.5728
   -12.3342 -11.9052 -11.8933 -11.7542 -11.7460 -11.6105 -11.5281 -11.5177
   -11.4487 -11.4457 -11.3750 -11.2215 -11.2090 -11.1995 -11.1503 -11.1444
   -11.1354 -11.0785 -10.9224 -10.8689  -9.1068  -9.1039  -9.0854  -9.0138
    -8.2298  -2.8751  -2.8688  -2.8266  -2.7147  -2.6420  -2.6359  -2.6070
    -2.6033  -2.5989  -2.4800  -2.4697  -2.3387  -2.2812  -2.2441  -2.2407
    -2.2343  -2.2037  -2.1554  -2.0988  -2.0900  -2.0530  -1.8625  -1.6751
    -1.6660  -1.6130  -1.5501  -1.5186  -1.4766  -1.4014  -1.3762  -1.3754
    -1.3381  -1.3219  -1.3013  -1.2736  -1.2441  -1.2253  -1.2165  -1.1980
    -1.1545  -1.1410  -1.1270  -1.0389  -0.9988  -0.9503  -0.9292  -0.8885
    -0.8436  -0.8081  -0.7938  -0.7634  -0.7349  -0.7314  -0.7180  -0.6908
    -0.6724  -0.6304  -0.5892  -0.5226  -0.4997  -0.3845  -0.3334  -0.3145
     0.7436   0.9452   0.9517   0.9538   1.1833   1.1851   1.1889   1.2054
     1.2428   1.2459   1.2523   1.3047   1.3840   1.5986   1.6744   1.6921
     1.8464   1.8641   1.9068   2.0692   2.0741   2.1091   2.1505   2.2283
     2.2356   2.3540   2.3686   2.3749   2.3999   2.4958   2.5038   2.5267
     2.5339   2.5383   2.5889   2.6214   2.6302   2.6323   2.6799   2.7091
     2.8015   2.8165   2.8224   2.9053   3.0739   3.1506   3.2230   3.2710
     3.2770   3.2883   3.2982   3.3412   3.4383   3.4397   3.4633   3.4780
     3.4836   3.5062   3.6064   3.6326   3.6575   3.6772   3.6889   3.7316
     3.7529   3.7784   3.7876   3.7970   3.8381   3.8437   3.8622   3.9094
     4.0608   4.0720   4.0822   4.0881   4.1136   4.1267   4.1383   4.2226
     4.2435   4.2532   4.2967   4.3086   4.3300   4.3551   4.3694   4.3824
     4.4111   4.4189   4.4532   4.4693   4.4961   4.5195   4.5371   4.5490
     4.5657   4.6088   4.6271   4.7138   4.7371   4.7739   4.8032   4.8298
     4.8647   4.8949   4.9097   4.9438   4.9507   5.0050   5.0080   5.0229
     5.0386   5.0441   5.0603   5.1032   5.1325   5.1957   5.2172   5.2339
     5.2428   5.2738   5.3646   5.4038   5.4274   5.4477   5.4855   5.5370
     5.5432   5.5581   5.5612   5.5839   5.6249   5.6372   5.6542   5.6664
     5.6822   5.7661   5.7741   5.7941   5.8065   5.8221   5.8360   5.8557
     5.8705   5.8785   5.8869   5.9043   5.9209   5.9574   5.9710   5.9740
     5.9851   6.0104   6.0338   6.0418   6.0489   6.0619   6.0857   6.0926
     6.1037   6.1095   6.1278   6.1367   6.1494   6.1592   6.1913   6.2734
     6.2819   6.2979   6.3269   6.3396   6.3486   6.3552   6.3615   6.3875
     6.4057   6.4104   6.4142   6.4576   6.4805   6.4914   6.5022   6.5281
     6.5407   6.5441   6.6144   6.6237   6.6363   6.6880   6.7207   6.7304
     6.7435   6.7666   6.7880   6.8037   6.8276   6.8434   6.8878   6.8995

          k = 0.5000-0.2887 0.0000 (108310 PWs)   bands (ev):

   -66.9262 -66.9225 -66.9055 -66.9017 -66.8799 -66.8759 -66.8754 -66.8744
   -66.8719 -66.8710 -66.8691 -66.8635 -66.8620 -66.8609 -66.8589 -66.8563
   -66.8460 -66.8405 -66.8397 -66.8383 -66.8358 -66.8330 -66.8312 -66.8269
   -66.6812 -66.6802 -66.6681 -66.6672 -66.6375 -66.6350 -66.6334 -66.6333
   -66.6307 -66.6304 -66.6265 -66.6245 -66.5886 -66.5664 -66.5619 -66.5571
   -66.5503 -66.5464 -66.5070 -66.5069 -66.5013 -66.4992 -66.4986 -66.4957
   -38.7231 -38.7165 -38.6996 -38.6905 -38.5982 -38.5914 -38.5890 -38.5856
   -38.5746 -38.5703 -38.5658 -38.5625 -38.5339 -38.5289 -38.5017 -38.4940
   -38.4717 -38.4698 -38.4642 -38.4617 -38.4615 -38.4605 -38.4417 -38.4403
   -38.3931 -38.3891 -38.3835 -38.3833 -38.3746 -38.3731 -38.3585 -38.3553
   -38.3277 -38.3252 -38.2903 -38.2888 -38.2815 -38.2810 -38.2666 -38.2643
   -38.2591 -38.2569 -38.2559 -38.2526 -38.2408 -38.2399 -38.2223 -38.2220
   -38.2214 -38.2175 -38.2146 -38.2119 -38.2049 -38.2022 -38.1987 -38.1972
   -38.1914 -38.1852 -38.1816 -38.1790 -38.1777 -38.1749 -38.1529 -38.1475
   -38.1435 -38.1352 -38.1332 -38.1315 -38.1239 -38.1228 -38.1179 -38.1165
   -38.1098 -38.1049 -38.0997 -38.0943 -38.0774 -38.0771 -38.0729 -38.0710
   -38.0633 -38.0611 -38.0577 -38.0538 -38.0500 -38.0469 -38.0410 -38.0270
   -38.0242 -38.0214 -37.9850 -37.9830 -37.9820 -37.9741 -37.9710 -37.9668
   -37.9598 -37.9531 -37.9496 -37.9465 -37.9421 -37.9357 -37.9328 -37.9197
   -37.9163 -37.9016 -37.9007 -37.8928 -37.8822 -37.8762 -37.8728 -37.8704
   -37.8695 -37.8674 -37.8599 -37.8577 -37.8492 -37.8429 -37.8423 -37.8391
   -37.8383 -37.8369 -37.8361 -37.8328 -37.7989 -37.7982 -37.7926 -37.7911
   -37.7858 -37.7841 -37.7741 -37.7733 -37.7546 -37.7510 -37.7480 -37.7424
   -37.6561 -37.6173 -37.6171 -37.6020 -37.5907 -37.5884 -37.5871 -37.5755
   -12.1561 -12.1545 -11.7862 -11.7834 -11.7730 -11.7708 -11.5286 -11.5243
   -11.3688 -11.3635 -11.2591 -11.2569 -11.2358 -11.2179 -11.1840 -11.1674
   -11.0191 -11.0046 -10.9704 -10.9621  -9.1085  -9.1069  -9.0484  -9.0475
    -8.2298  -2.8343  -2.8323  -2.7448  -2.7419  -2.6831  -2.6750  -2.6656
    -2.6540  -2.5410  -2.5385  -2.4262  -2.4221  -2.2666  -2.2567  -2.2066
    -2.1939  -2.1546  -2.1491  -2.0082  -1.9970  -1.9464  -1.9355  -1.7433
    -1.7334  -1.6192  -1.6106  -1.5577  -1.5458  -1.4777  -1.4708  -1.4024
    -1.3445  -1.3316  -1.3299  -1.2950  -1.2438  -1.1949  -1.1637  -1.1567
    -1.1334  -1.1198  -1.0519  -1.0196  -0.9990  -0.9659  -0.9412  -0.9146
    -0.8601  -0.8075  -0.7937  -0.7478  -0.7368  -0.7246  -0.7075  -0.6399
    -0.6351  -0.6075  -0.5703  -0.5395  -0.4980  -0.4614  -0.3604  -0.3390
     0.8844   0.8861   0.9430   0.9447   1.1939   1.1989   1.2130   1.2172
     1.2250   1.2281   1.2632   1.2653   1.4769   1.4859   1.6982   1.7132
     1.9686   1.9805   1.9833   2.0073   2.0975   2.1103   2.1341   2.1477
     2.2705   2.2749   2.4454   2.4515   2.4568   2.4653   2.5030   2.5046
     2.5432   2.5449   2.5525   2.5602   2.6569   2.6793   2.7991   2.8189
     2.8250   2.8358   2.8866   2.8991   3.0900   3.1005   3.1110   3.1169
     3.1596   3.1741   3.2678   3.2917   3.3929   3.3953   3.4459   3.4723
     3.4947   3.4986   3.5793   3.5862   3.6777   3.6820   3.7375   3.7478
     3.7911   3.8056   3.8489   3.8647   3.9177   3.9655   3.9731   4.0042
     4.0139   4.0174   4.0299   4.0517   4.0583   4.0894   4.1766   4.2028
     4.2099   4.2307   4.3046   4.3213   4.3547   4.3800   4.3992   4.4044
     4.4081   4.4370   4.4478   4.4528   4.4808   4.5071   4.5158   4.5373
     4.5430   4.5489   4.6772   4.6816   4.6915   4.7151   4.7199   4.7316
     4.7544   4.7762   4.8815   4.8869   5.0206   5.0643   5.0743   5.0817
     5.1235   5.1346   5.1410   5.1736   5.1888   5.2072   5.2174   5.2397
     5.2407   5.2656   5.2988   5.3711   5.4133   5.4287   5.4348   5.4379
     5.5030   5.5055   5.5287   5.5821   5.6117   5.6239   5.6282   5.6315
     5.6552   5.6789   5.6869   5.7245   5.7994   5.8152   5.8202   5.8240
     5.8329   5.8451   5.8671   5.8959   5.9111   5.9316   5.9528   5.9587
     5.9636   5.9769   5.9954   5.9975   6.0614   6.0704   6.0727   6.0933
     6.1184   6.1362   6.1440   6.2174   6.2343   6.2406   6.2571   6.2704
     6.2750   6.2787   6.2932   6.2996   6.3127   6.3242   6.4246   6.4338
     6.4369   6.4535   6.4583   6.4809   6.5099   6.5131   6.5179   6.5229
     6.5396   6.5411   6.5937   6.5983   6.6659   6.6951   6.7071   6.7177
     6.7517   6.7528   6.8135   6.8283   6.9253   6.9320   6.9506   6.9647

          k =-0.5000-0.2887 0.0000 (108310 PWs)   bands (ev):

   -66.9252 -66.9240 -66.9039 -66.9023 -66.8810 -66.8764 -66.8764 -66.8746
   -66.8723 -66.8709 -66.8663 -66.8643 -66.8603 -66.8597 -66.8596 -66.8575
   -66.8460 -66.8430 -66.8405 -66.8362 -66.8361 -66.8323 -66.8297 -66.8284
   -66.6811 -66.6806 -66.6677 -66.6672 -66.6384 -66.6373 -66.6328 -66.6317
   -66.6295 -66.6291 -66.6267 -66.6261 -66.5885 -66.5686 -66.5593 -66.5550
   -66.5532 -66.5461 -66.5103 -66.5028 -66.5012 -66.4990 -66.4983 -66.4972
   -38.7214 -38.7188 -38.6980 -38.6916 -38.5953 -38.5931 -38.5914 -38.5899
   -38.5706 -38.5676 -38.5650 -38.5640 -38.5288 -38.5282 -38.5045 -38.4991
   -38.4712 -38.4676 -38.4662 -38.4633 -38.4611 -38.4600 -38.4407 -38.4388
   -38.3929 -38.3907 -38.3849 -38.3848 -38.3737 -38.3721 -38.3579 -38.3567
   -38.3262 -38.3229 -38.2897 -38.2868 -38.2856 -38.2802 -38.2685 -38.2643
   -38.2593 -38.2584 -38.2564 -38.2509 -38.2410 -38.2373 -38.2224 -38.2215
   -38.2198 -38.2184 -38.2137 -38.2122 -38.2038 -38.2011 -38.2000 -38.1979
   -38.1953 -38.1843 -38.1805 -38.1793 -38.1776 -38.1749 -38.1511 -38.1470
   -38.1442 -38.1382 -38.1340 -38.1305 -38.1249 -38.1210 -38.1178 -38.1148
   -38.1084 -38.1066 -38.0956 -38.0946 -38.0810 -38.0779 -38.0729 -38.0725
   -38.0650 -38.0628 -38.0578 -38.0530 -38.0515 -38.0438 -38.0349 -38.0325
   -38.0268 -38.0184 -37.9863 -37.9829 -37.9809 -37.9751 -37.9716 -37.9678
   -37.9590 -37.9557 -37.9475 -37.9445 -37.9436 -37.9363 -37.9323 -37.9197
   -37.9153 -37.9043 -37.8980 -37.8904 -37.8797 -37.8773 -37.8735 -37.8715
   -37.8700 -37.8641 -37.8603 -37.8585 -37.8502 -37.8436 -37.8406 -37.8398
   -37.8382 -37.8369 -37.8354 -37.8345 -37.8002 -37.7992 -37.7915 -37.7909
   -37.7842 -37.7836 -37.7750 -37.7740 -37.7542 -37.7527 -37.7469 -37.7416
   -37.6545 -37.6209 -37.6165 -37.5988 -37.5978 -37.5931 -37.5784 -37.5748
   -12.1572 -12.1537 -11.7885 -11.7793 -11.7722 -11.7706 -11.5357 -11.5244
   -11.3722 -11.3677 -11.2580 -11.2528 -11.2301 -11.2092 -11.1768 -11.1732
   -11.0198 -11.0125 -10.9698 -10.9631  -9.1094  -9.1064  -9.0496  -9.0458
    -8.2298  -2.8417  -2.8375  -2.7407  -2.7342  -2.6778  -2.6712  -2.6673
    -2.6660  -2.5416  -2.5283  -2.4295  -2.4255  -2.2617  -2.2585  -2.2083
    -2.2043  -2.1580  -2.1491  -2.0056  -1.9997  -1.9375  -1.9186  -1.7424
    -1.7390  -1.6360  -1.5935  -1.5752  -1.5539  -1.4690  -1.4598  -1.3915
    -1.3498  -1.3422  -1.3303  -1.2617  -1.2351  -1.2227  -1.1732  -1.1488
    -1.1298  -1.1275  -1.0454  -1.0175  -0.9973  -0.9501  -0.9348  -0.9126
    -0.8820  -0.8090  -0.7893  -0.7605  -0.7430  -0.7186  -0.7064  -0.6445
    -0.6428  -0.6044  -0.5676  -0.5534  -0.4885  -0.4641  -0.3587  -0.3348
     0.8832   0.8859   0.9435   0.9460   1.1951   1.1991   1.2121   1.2154
     1.2230   1.2265   1.2615   1.2690   1.4725   1.4862   1.6961   1.7207
     1.9701   1.9805   1.9922   1.9959   2.0975   2.1091   2.1423   2.1524
     2.2730   2.2779   2.4414   2.4470   2.4534   2.4579   2.4978   2.5077
     2.5436   2.5440   2.5477   2.5537   2.6551   2.6654   2.7999   2.8157
     2.8299   2.8332   2.8942   2.8965   3.0989   3.1025   3.1083   3.1159
     3.1671   3.1698   3.2777   3.2905   3.3970   3.4008   3.4486   3.4673
     3.4957   3.5012   3.5865   3.5957   3.6674   3.6834   3.7275   3.7482
     3.7980   3.8025   3.8553   3.8687   3.9105   3.9632   3.9722   3.9829
     4.0136   4.0182   4.0416   4.0496   4.0763   4.0867   4.1858   4.2074
     4.2133   4.2179   4.3230   4.3303   4.3704   4.3783   4.3941   4.4023
     4.4176   4.4264   4.4388   4.4595   4.4734   4.5084   4.5121   4.5396
     4.5488   4.5669   4.6671   4.6720   4.6910   4.7133   4.7204   4.7306
     4.7469   4.7630   4.8746   4.9033   5.0228   5.0627   5.0707   5.0888
     5.1082   5.1249   5.1313   5.1518   5.1876   5.1965   5.2157   5.2196
     5.2554   5.2654   5.3158   5.4031   5.4202   5.4261   5.4298   5.4343
     5.4903   5.5008   5.5220   5.5838   5.6149   5.6246   5.6348   5.6486
     5.6607   5.6744   5.6882   5.7624   5.8025   5.8037   5.8187   5.8274
     5.8458   5.8614   5.8641   5.8735   5.9146   5.9229   5.9496   5.9596
     5.9616   5.9695   5.9951   6.0117   6.0432   6.0690   6.0808   6.0935
     6.1155   6.1358   6.1445   6.1672   6.2359   6.2485   6.2568   6.2629
     6.2711   6.2770   6.2889   6.3071   6.3158   6.3183   6.4283   6.4336
     6.4383   6.4543   6.4711   6.4777   6.5055   6.5121   6.5146   6.5197
     6.5322   6.5392   6.5951   6.5990   6.6865   6.6910   6.7000   6.7273
     6.7439   6.7455   6.8108   6.8124   6.9287   6.9318   6.9482   6.9635

          k =-0.2500 0.4330 0.0000 (108308 PWs)   bands (ev):

   -66.9278 -66.9165 -66.9148 -66.8932 -66.8846 -66.8793 -66.8757 -66.8731
   -66.8703 -66.8683 -66.8669 -66.8660 -66.8635 -66.8614 -66.8592 -66.8527
   -66.8480 -66.8415 -66.8401 -66.8380 -66.8346 -66.8332 -66.8306 -66.8274
   -66.6830 -66.6751 -66.6746 -66.6637 -66.6387 -66.6353 -66.6341 -66.6327
   -66.6292 -66.6289 -66.6278 -66.6249 -66.5886 -66.5659 -66.5638 -66.5536
   -66.5525 -66.5464 -66.5086 -66.5054 -66.5012 -66.4992 -66.4980 -66.4965
   -38.7235 -38.7118 -38.7074 -38.6869 -38.5979 -38.5934 -38.5909 -38.5828
   -38.5728 -38.5709 -38.5648 -38.5638 -38.5333 -38.5204 -38.5174 -38.4812
   -38.4782 -38.4709 -38.4685 -38.4634 -38.4563 -38.4509 -38.4470 -38.4424
   -38.3907 -38.3895 -38.3871 -38.3781 -38.3755 -38.3641 -38.3615 -38.3593
[...]
     6.5966   6.6016   6.6373   6.6413   6.6775   6.7109   6.7303   6.7393
     6.7494   6.7854   6.8026   6.8158   6.8233   6.8807   6.9354   6.9468

          k = 0.5000-0.0000 0.0000 (108308 PWs)   bands (ev):

   -66.9265 -66.9156 -66.9134 -66.8920 -66.8841 -66.8782 -66.8742 -66.8726
   -66.8693 -66.8677 -66.8658 -66.8646 -66.8627 -66.8603 -66.8582 -66.8515
   -66.8471 -66.8413 -66.8386 -66.8367 -66.8340 -66.8326 -66.8311 -66.8259
   -66.6829 -66.6751 -66.6747 -66.6640 -66.6377 -66.6338 -66.6326 -66.6314
   -66.6279 -66.6273 -66.6266 -66.6239 -66.5899 -66.5662 -66.5616 -66.5534
   -66.5503 -66.5478 -66.5081 -66.5038 -66.5003 -66.4954 -66.4945 -66.4928
   -38.7196 -38.7085 -38.7033 -38.6830 -38.5948 -38.5906 -38.5875 -38.5803
   -38.5704 -38.5677 -38.5621 -38.5608 -38.5309 -38.5189 -38.5158 -38.4802
   -38.4774 -38.4702 -38.4682 -38.4641 -38.4551 -38.4508 -38.4480 -38.4444
   -38.3900 -38.3893 -38.3885 -38.3820 -38.3745 -38.3669 -38.3653 -38.3630
   -38.3530 -38.2942 -38.2895 -38.2886 -38.2864 -38.2757 -38.2747 -38.2639
   -38.2608 -38.2587 -38.2538 -38.2497 -38.2358 -38.2280 -38.2269 -38.2236
   -38.2228 -38.2187 -38.2160 -38.2136 -38.2058 -38.2037 -38.2028 -38.1953
   -38.1899 -38.1886 -38.1849 -38.1762 -38.1693 -38.1678 -38.1646 -38.1459
   -38.1384 -38.1353 -38.1327 -38.1317 -38.1241 -38.1215 -38.1191 -38.1112
   -38.1054 -38.1032 -38.0978 -38.0947 -38.0793 -38.0718 -38.0696 -38.0650
   -38.0623 -38.0599 -38.0595 -38.0536 -38.0490 -38.0471 -38.0338 -38.0282
   -38.0246 -38.0179 -37.9857 -37.9833 -37.9793 -37.9727 -37.9719 -37.9621
   -37.9577 -37.9501 -37.9465 -37.9393 -37.9356 -37.9338 -37.9301 -37.9260
   -37.9123 -37.8996 -37.8911 -37.8888 -37.8830 -37.8770 -37.8748 -37.8700
   -37.8642 -37.8609 -37.8590 -37.8573 -37.8497 -37.8473 -37.8446 -37.8401
   -37.8368 -37.8346 -37.8327 -37.8294 -37.8017 -37.8005 -37.7952 -37.7904
   -37.7880 -37.7792 -37.7788 -37.7709 -37.7540 -37.7508 -37.7440 -37.7410
   -37.6580 -37.6203 -37.6149 -37.6039 -37.5928 -37.5870 -37.5763 -37.5717
   -12.2032 -11.9916 -11.9858 -11.8027 -11.6631 -11.6555 -11.6217 -11.4513
   -11.3784 -11.3213 -11.3014 -11.2935 -11.2365 -11.2265 -11.1159 -11.0929
   -11.0221 -11.0193 -10.9914 -10.9033  -9.1836  -9.1345  -9.1341  -9.0948
    -8.6961  -2.8823  -2.7849  -2.7737  -2.7589  -2.6478  -2.6412  -2.5943
    -2.5637  -2.5099  -2.5023  -2.4781  -2.4690  -2.4291  -2.2562  -2.1091
    -2.1075  -2.1025  -2.0565  -2.0226  -2.0153  -1.9718  -1.9651  -1.8553
    -1.7208  -1.6620  -1.6369  -1.5672  -1.5524  -1.4855  -1.4224  -1.4098
    -1.3411  -1.3031  -1.2968  -1.2774  -1.2611  -1.2581  -1.2432  -1.1818
    -1.0744  -1.0647  -1.0366  -1.0243  -1.0120  -0.9729  -0.9563  -0.9403
    -0.8495  -0.8308  -0.8151  -0.7748  -0.7584  -0.7290  -0.7176  -0.7073
    -0.6870  -0.6123  -0.5970  -0.5422  -0.4453  -0.4133  -0.3931  -0.2765
     0.8191   0.8757   0.8760   0.9140   1.1116   1.1146   1.1585   1.1626
     1.1633   1.2214   1.2273   1.2284   1.4223   1.5521   1.5739   1.7643
     1.9164   2.0221   2.0310   2.0594   2.1232   2.1331   2.1398   2.1490
     2.2321   2.3041   2.3144   2.3776   2.4511   2.4545   2.4841   2.4925
     2.5305   2.5867   2.6465   2.6560   2.6603   2.7447   2.7507   2.8008
     2.8614   2.8825   2.8916   2.9107   2.9839   2.9897   3.0043   3.0914
     3.2344   3.3125   3.3590   3.3737   3.4058   3.4195   3.4332   3.5000
     3.5125   3.5175   3.5324   3.6153   3.6193   3.6334   3.7097   3.7721
     3.7803   3.7940   3.8268   3.8409   3.8711   3.9150   3.9300   3.9571
     4.0728   4.1015   4.1125   4.1281   4.1407   4.1464   4.1659   4.1896
     4.2141   4.2482   4.2699   4.3037   4.3115   4.3576   4.3659   4.3734
     4.4001   4.4254   4.4512   4.4750   4.4903   4.5048   4.5292   4.5411
     4.6161   4.6231   4.6456   4.6515   4.6618   4.6836   4.7145   4.7364
     4.7659   4.9034   4.9226   4.9341   4.9604   4.9700   4.9903   5.0052
     5.0453   5.0882   5.1003   5.1532   5.1906   5.2226   5.2427   5.2634
     5.2753   5.3269   5.3631   5.3878   5.4070   5.4186   5.4715   5.4966
     5.5096   5.5121   5.5312   5.5553   5.5789   5.5870   5.6144   5.6622
     5.6729   5.7061   5.7444   5.7931   5.8007   5.8105   5.8167   5.8375
     5.8487   5.8586   5.8645   5.8759   5.8949   5.9342   5.9396   5.9452
     5.9561   5.9672   5.9863   6.0002   6.0185   6.0405   6.0637   6.0964
     6.1205   6.1375   6.1520   6.1558   6.1741   6.2032   6.2185   6.2613
     6.2689   6.2816   6.3075   6.3242   6.3435   6.3693   6.3787   6.3953
     6.4185   6.4378   6.4457   6.4684   6.5265   6.5413   6.5579   6.5879
     6.5959   6.6052   6.6368   6.6423   6.6774   6.7121   6.7289   6.7361
     6.7502   6.7799   6.8024   6.8172   6.8285   6.8805   6.9373   6.9478

     the Fermi energy is     5.2729 ev

!    total energy              =  -12616.46209197 Ry
     total all-electron energy =   -103594.965899 Ry
     estimated scf accuracy    <          2.5E-11 Ry
     smearing contrib. (-TS)   =       0.01076713 Ry
     internal energy E=F+TS    =  -12616.47285910 Ry

     The total energy is F=E-TS. E is the sum of the following terms:
     one-electron contribution =  -67422.52667354 Ry
     hartree contribution      =   33826.92380098 Ry
     xc contribution           =   -1216.10235686 Ry
     ewald contribution        =   25957.59930388 Ry
     DFT-D3 Dispersion         =      -1.08570079 Ry
     one-center paw contrib.   =   -3761.28123278 Ry

     convergence has been achieved in  34 iterations

     negative rho (up, down):  2.000E-04 0.000E+00

     Forces acting on atoms (cartesian axes, Ry/au):

     atom    1 type  1   force =    -0.00002688    0.00005333    0.00008475
     atom    2 type  1   force =     0.00011906    0.00001549   -0.00001761
     atom    3 type  1   force =    -0.00003475    0.00014487   -0.00004596
     atom    4 type  1   force =    -0.00002796    0.00040821   -0.00021528
     atom    5 type  1   force =     0.00033527   -0.00040037   -0.00021149
     atom    6 type  1   force =    -0.00037529   -0.00007056   -0.00010623
     atom    7 type  2   force =    -0.00016262   -0.00004042    0.00036170
     atom    8 type  2   force =     0.00003360   -0.00006765    0.00015895
     atom    9 type  2   force =    -0.00008642   -0.00011138    0.00017436
     atom   10 type  1   force =    -0.00010994    0.00011095    0.00015107
     atom   11 type  1   force =     0.00011653    0.00008155    0.00003427
     atom   12 type  1   force =     0.00014195    0.00028113    0.00028191
     atom   13 type  1   force =    -0.00005189   -0.00009296   -0.00014067
     atom   14 type  1   force =    -0.00012383    0.00013797    0.00010885
     atom   15 type  1   force =     0.00015012   -0.00005248    0.00007477
     atom   16 type  2   force =     0.00012467    0.00007452   -0.00004522
     atom   17 type  2   force =    -0.00012155   -0.00014292   -0.00025502
     atom   18 type  2   force =    -0.00008284   -0.00007476   -0.00017284
     atom   19 type  1   force =     0.00004887   -0.00004692    0.00004629
     atom   20 type  1   force =    -0.00020335   -0.00000951   -0.00008498
     atom   21 type  1   force =    -0.00007772    0.00008864    0.00006529
     atom   22 type  1   force =     0.00021250    0.00045075   -0.00003948
     atom   23 type  1   force =     0.00017733   -0.00032942   -0.00026917
     atom   24 type  1   force =    -0.00033481   -0.00004740   -0.00020101
     atom   25 type  2   force =     0.00008098    0.00009861    0.00038567
     atom   26 type  2   force =     0.00004681   -0.00006545    0.00022675
     atom   27 type  2   force =    -0.00002729   -0.00003698    0.00029214
     atom   28 type  1   force =    -0.00002222    0.00013809    0.00011609
     atom   29 type  1   force =    -0.00016548    0.00020695   -0.00017689
     atom   30 type  1   force =    -0.00004254   -0.00019612    0.00000601
     atom   31 type  1   force =    -0.00032364   -0.00024109    0.00007404
     atom   32 type  1   force =    -0.00001413    0.00017912   -0.00004801
     atom   33 type  1   force =     0.00010101   -0.00008697   -0.00022682
     atom   34 type  2   force =    -0.00011649   -0.00006075   -0.00016597
     atom   35 type  2   force =    -0.00015396    0.00010867   -0.00050093
     atom   36 type  2   force =    -0.00007875   -0.00010747    0.00002515
     atom   37 type  1   force =     0.00017359   -0.00016120   -0.00013982
     atom   38 type  1   force =    -0.00012883    0.00007238    0.00011230
     atom   39 type  1   force =    -0.00012372   -0.00015229    0.00024054
     atom   40 type  1   force =     0.00032669    0.00013071    0.00002428
     atom   41 type  1   force =     0.00003464   -0.00039263   -0.00020155
     atom   42 type  1   force =    -0.00031064   -0.00004016   -0.00013993
     atom   43 type  2   force =     0.00004975   -0.00002786    0.00032509
     atom   44 type  2   force =     0.00002195    0.00001493    0.00025705
     atom   45 type  2   force =    -0.00008118    0.00011898    0.00027828
     atom   46 type  1   force =     0.00002479    0.00043713   -0.00027603
     atom   47 type  1   force =     0.00022317    0.00008218    0.00015148
     atom   48 type  1   force =    -0.00007073   -0.00008165   -0.00008045
     atom   49 type  1   force =     0.00023993   -0.00014251   -0.00020854
     atom   50 type  1   force =    -0.00008594   -0.00011394   -0.00024130
     atom   51 type  1   force =     0.00004288    0.00009851   -0.00013245
     atom   52 type  2   force =     0.00021908    0.00013097   -0.00049924
     atom   53 type  2   force =    -0.00000064   -0.00003969    0.00006645
     atom   54 type  2   force =     0.00051245   -0.00010059   -0.00063507
     atom   55 type  1   force =    -0.00002202    0.00002992    0.00005328
     atom   56 type  1   force =    -0.00004045   -0.00011188    0.00005738
     atom   57 type  1   force =     0.00011640    0.00003080   -0.00008903
     atom   58 type  1   force =     0.00010536    0.00024631   -0.00010970
     atom   59 type  1   force =     0.00009041   -0.00032367   -0.00017623
     atom   60 type  1   force =    -0.00037686   -0.00003857   -0.00014924
     atom   61 type  2   force =    -0.00003417    0.00003923    0.00043409
     atom   62 type  2   force =    -0.00001027   -0.00003652    0.00025550
     atom   63 type  2   force =    -0.00000802   -0.00002875    0.00022420
     atom   64 type  1   force =     0.00015450   -0.00040759    0.00006876
     atom   65 type  1   force =    -0.00040404    0.00001751    0.00014576
     atom   66 type  1   force =    -0.00025654   -0.00038695    0.00023516
     atom   67 type  1   force =    -0.00012857   -0.00012771    0.00006946
     atom   68 type  1   force =     0.00008697    0.00012532   -0.00016487
     atom   69 type  1   force =     0.00021743    0.00018842   -0.00022317
     atom   70 type  2   force =    -0.00013000    0.00004358   -0.00013363
     atom   71 type  2   force =    -0.00031986    0.00019044    0.00005453
     atom   72 type  2   force =     0.00028306   -0.00022223    0.00014278
     atom   73 type  3   force =     0.00044560    0.00046568    0.00081016
     atom   74 type  4   force =    -0.00022608    0.00030570   -0.00037749
     atom   75 type  4   force =     0.00069217   -0.00007297   -0.00050012
     atom   76 type  4   force =    -0.00005656   -0.00061866    0.00022316
     atom   77 type  4   force =    -0.00017006    0.00056205    0.00050367

     Total force =     0.003298     Total SCF correction =     0.000036
     Energy error            =      1.8E-05 Ry
     Gradient error          =      8.1E-04 Ry/Bohr

     bfgs converged in  16 scf cycles and  15 bfgs steps
     (criteria: energy <  1.0E-04 Ry, force <  1.0E-03 Ry/Bohr)

     End of BFGS Geometry Optimization

     Final energy             =  -12616.4620919720 Ry

     File ./Cr2N_CH4_R4.bfgs deleted, as requested
Begin final coordinates

ATOMIC_POSITIONS (angstrom)
Cr              -1.5707990143        2.8187120125        8.2323128376
Cr               3.2155733216        0.0559174362        8.2319552532
Cr               0.8064799302        1.4103427686        8.2292206798
Cr               1.6554714707        2.8793813815        6.1013290152
Cr              -0.7207867621        1.3494109370        6.1004961159
Cr               1.5180212205        0.0567173836        6.1005458627
N                0.0260040179        0.0572118460        5.0582356060
N                2.4024533224        1.4286843807        7.0868519164
N                0.0251792066        2.8014052522        7.0869217653
Cr              -1.6292989305        2.9084012459       12.4996606409
Cr               3.3255653654        0.0484400082       12.4986825523
Cr               0.7252223068        1.2655308999       12.4668517005
Cr               1.6225619723        2.8199807473       10.4346452895
Cr              -0.7638485864        1.4047128387       10.4158139476
Cr               1.5865290084        0.0468537392       10.4150914299
N                0.0262352730        0.0591465453        9.3055463314
N                2.3937061069        1.4258841421       11.5441809145
N                0.0275069974        2.7905994802       11.5469065382
Cr              -3.9463025490        6.9361828764        8.2279477569
Cr               0.8463518618        4.1717081319        8.2296360428
Cr              -1.5704914127        5.5177796453        8.2288459250
Cr              -0.7197018756        6.9931927875        6.1006206010
Cr              -3.0970085718        5.4617845091        6.1039977529
Cr              -0.8596669243        4.1714939393        6.0990677809
N               -2.3517926433        4.1718108898        5.0570168085
N                0.0266384339        5.5414952639        7.0872178504
N               -2.3486988420        6.9143011477        7.0862111070
Cr              -3.9908759534        7.0158444435       12.5026945071
Cr               0.9129958804        4.1620241261       12.5230773733
Cr              -1.6303478466        5.4359947966       12.5157978838
Cr              -0.7524265701        6.9270670775       10.4219609478
Cr              -3.1161794075        5.5213802905       10.4165792238
Cr              -0.7813182196        4.1734507617       10.4366185548
N               -2.3442463894        4.1670650711        9.3155055873
N                0.0344547747        5.5404171312       11.5718758120
N               -2.3464522379        6.9114256564       11.5385463830
Cr               3.1791030992        2.8246544176        8.2293546018
Cr               7.9692681809        0.0571623917        8.2272644834
Cr               5.5532579042        1.4058523169        8.2280170030
Cr               6.4051299186        2.8804545869        6.1000107046
Cr               4.0313541371        1.3478402757        6.0985304763
Cr               6.2671372017        0.0549822815        6.1035734808
N                4.7770011477        0.0552552072        5.0572162652
N                7.1511561178        1.4294912632        7.0852996368
N                4.7750640150        2.8000577365        7.0865547516
Cr               3.1374523997        2.8644624031       12.5405377872
Cr               8.0609250099        0.0572147960       12.5023813515
Cr               5.5104507158        1.3084187667       12.5157247786
Cr               6.3623117172        2.8183710060       10.4249936192
Cr               3.9947414986        1.4178496531       10.4355143360
Cr               6.3293815173        0.0685536859       10.4162213183
N                4.7700592329        0.0610580032        9.3153838060
N                7.1474089431        1.4299787659       11.5398158179
N                4.7659176636        2.8068750228       11.5789034766
Cr               0.8029711164        6.9341281411        8.2348077603
Cr               5.5925324671        4.1687273438        8.2349170781
Cr               3.1788106364        5.5184630108        8.2319961929
Cr               4.0312650097        6.9947575473        6.1014807571
Cr               1.6548564097        5.4641079332        6.1002405405
Cr               3.8938624188        4.1715208600        6.1001041728
N                2.4016620196        4.1721997963        5.0579965288
N                4.7751382192        5.5415791987        7.0888813202
N                2.4008017854        6.9123926286        7.0888289891
Cr               0.7308890026        7.0652402678       12.5032550021
Cr               5.7466515500        4.1725733071       12.5022108118
Cr               3.1661144073        5.4993962971       12.4477889444
Cr               3.9955124803        6.9305490225       10.4261472284
Cr               1.6096181539        5.5239282857       10.4247227552
Cr               3.9676620192        4.1601123720       10.4286498083
N                2.4015483711        4.1695925440        9.3217377467
N                4.8008642171        5.5323303493       11.5294580303
N                2.3807522847        6.9307450835       11.5275677155
C                2.0140660452        3.3178470454       15.1264925971
H                2.6964416209        3.8981877402       15.7569670224
H                1.3635827619        2.6616824774       15.7180335241
H                1.3658467472        4.0553811217       14.5988548349
H                2.6242021117        2.6166584162       14.4969841586
End final coordinates



     Writing all to output data dir ./Cr2N_CH4_R4.save/ :
     XML data file, charge density, pseudopotentials, collected wavefunctions
 
     init_run     :     18.47s CPU     19.39s WALL (       1 calls)
     electrons    :  23187.62s CPU  23828.94s WALL (      16 calls)
     update_pot   :     19.07s CPU     19.93s WALL (      15 calls)
     forces       :    163.57s CPU    169.78s WALL (      16 calls)
     force_dftd3  :      3.47s CPU      3.68s WALL (      16 calls)

     Called by init_run:
     wfcinit      :     14.17s CPU     14.64s WALL (       1 calls)
     potinit      :      1.04s CPU      1.18s WALL (       1 calls)
     hinit0       :      0.36s CPU      0.44s WALL (       1 calls)

     Called by electrons:
     c_bands      :  19057.35s CPU  19469.95s WALL (     590 calls)
     sum_band     :   3261.36s CPU   3379.95s WALL (     590 calls)
     v_of_rho     :    334.03s CPU    359.86s WALL (     593 calls)
     newd         :    256.05s CPU    329.95s WALL (     593 calls)
     PAW_pot      :    220.86s CPU    224.23s WALL (     608 calls)
     mix_rho      :     46.00s CPU     49.83s WALL (     590 calls)
     energy_dftd3 :      1.80s CPU      1.81s WALL (      16 calls)

     Called by c_bands:
     init_us_2    :    336.97s CPU    341.90s WALL (    3636 calls)
     cegterg      :  17856.39s CPU  18257.47s WALL (    1770 calls)

     Called by *egterg:
     cdiaghg      :    605.64s CPU    613.31s WALL (    5723 calls)
     h_psi        :   8867.86s CPU   9046.56s WALL (    5810 calls)
     s_psi        :   2071.18s CPU   2093.04s WALL (    5810 calls)
     g_psi        :     39.10s CPU     39.63s WALL (    4037 calls)

     Called by h_psi:
     h_psi:calbec :   2105.57s CPU   2129.03s WALL (    5810 calls)
     vloc_psi     :   4614.89s CPU   4697.36s WALL (    5810 calls)
                                        0.00s GPU  (    5810 calls)
     add_vuspsi   :   2078.60s CPU   2101.61s WALL (    5810 calls)

     General routines
     calbec       :   3210.88s CPU   3245.60s WALL (    7817 calls)
     fft          :    262.93s CPU    287.17s WALL (    7881 calls)
     ffts         :      3.56s CPU      4.09s WALL (    1183 calls)
     fftw         :   4532.60s CPU   4609.25s WALL ( 4439982 calls)
     interpolate  :     19.23s CPU     21.61s WALL (     593 calls)
 
     Parallel routines
 
     PWSCF        :      6h30m CPU      6h41m WALL

 
   This run was terminated on:  11:31:49  15May2026            

=------------------------------------------------------------------------------=
   JOB DONE.
=------------------------------------------------------------------------------=
