
     Program PWSCF v.7.5 starts on  6Jun2026 at  2:51:40 

     This program is part of the open-source Quantum ESPRESSO suite
     for quantum simulation of materials; please cite
         "P. Giannozzi et al., J. Phys.:Condens. Matter 21 395502 (2009);
         "P. Giannozzi et al., J. Phys.:Condens. Matter 29 465901 (2017);
         "P. Giannozzi et al., J. Chem. Phys. 152 154105 (2020);
          URL http://www.quantum-espresso.org", 
     in publications or presentations arising from this work. More details at
     http://www.quantum-espresso.org/quote

     Parallel version (MPI & OpenMP), running on      64 processor cores
     Number of MPI processes:                64
     Threads/MPI process:                     1

     MPI processes distributed on     1 nodes
     166070 MiB available memory on the printing compute node when the environment starts
 
     Reading input from generated_inputs/adsorcion/pw-CH4-H31_Rot0_bridge_.in
Warning: card &CELL ignored

     Current dimensions of program PWSCF are:
     Max number of different atomic species (ntypx) = 10
     Max number of k-points (npk) =  40000
     Max angular momentum in pseudopotentials (lmaxx) =  4
     file Cr.pbe-spn-kjpaw_psl.1.0.0.UPF: wavefunction(s)  3S 3P 3D renormalized
     file N.pbe-n-kjpaw_psl.1.0.0.UPF: wavefunction(s)  2S renormalized
     file C.pbe-n-kjpaw_psl.1.0.0.UPF: wavefunction(s)  2S 2P renormalized
     file H.pbe-kjpaw_psl.1.0.0.UPF: wavefunction(s)  1S renormalized
 
     K-points division:     npool     =       4
     R & G space division:  proc/nbgrp/npool/nimage =      16
     Subspace diagonalization in iterative solution of the eigenvalue problem:
     one sub-group per band group will be used
     scalapack distributed-memory algorithm (size of sub-group:  4*  4 procs)

 
     Parallelization info
     --------------------
     sticks:   dense  smooth     PW     G-vecs:    dense   smooth      PW
     Min        1166     388    102               281408    54158    7274
     Max        1167     389    103               281417    54165    7281
     Sum       18661    6217   1639              4502593   866593  116429
 
     Using Slab Decomposition
 


     bravais-lattice index     =            0
     lattice parameter (alat)  =      17.9576  a.u.
     unit-cell volume          =   10952.5767 (a.u.)^3
     number of atoms/cell      =           77
     number of atomic types    =            4
     number of electrons       =       800.00
     number of Kohn-Sham states=          480
     kinetic-energy cutoff     =      70.0000  Ry
     charge density cutoff     =     840.0000  Ry
     scf convergence threshold =      1.0E-08
     mixing beta               =       0.2000
     number of iterations used =            8  plain     mixing
     energy convergence thresh.=      1.0E-04
     force convergence thresh. =      1.0E-03
     Exchange-correlation= SLA  PW   PBX  PBC
                           (   1   4   3   4   0   0   0)
     nstep                     =          200


     celldm(1)=  17.957575  celldm(2)=   0.000000  celldm(3)=   0.000000
     celldm(4)=   0.000000  celldm(5)=   0.000000  celldm(6)=   0.000000

     crystal axes: (cart. coord. in units of alat)
               a(1) = (   1.000000   0.000000   0.000000 )  
               a(2) = (  -0.500000   0.866025   0.000000 )  
               a(3) = (   0.000000   0.000000   2.183951 )  

     reciprocal axes: (cart. coord. in units 2 pi/alat)
               b(1) = (  1.000000  0.577351  0.000000 )  
               b(2) = (  0.000000  1.154701  0.000000 )  
               b(3) = (  0.000000  0.000000  0.457886 )  


     PseudoPot. # 1 for Cr read from file:
     pseudo/Cr.pbe-spn-kjpaw_psl.1.0.0.UPF
     MD5 check sum: 198f1a2427a48552563eee314eba32ba
     Pseudo is Projector augmented-wave + core cor, Zval = 14.0
     Generated using &quot;atomic&quot; code by A. Dal Corso  v.6.3
     Shape of augmentation charge: PSQ
     Using radial grid of 1183 points,  6 beta functions with: 
                l(1) =   0
                l(2) =   0
                l(3) =   1
                l(4) =   1
                l(5) =   2
                l(6) =   2
     Q(r) pseudized with 0 coefficients 


     PseudoPot. # 2 for N  read from file:
     pseudo/N.pbe-n-kjpaw_psl.1.0.0.UPF
     MD5 check sum: 14c48229446f9f2d411169a3abcbc3fa
     Pseudo is Projector augmented-wave + core cor, Zval =  5.0
     Generated using &quot;atomic&quot; code by A. Dal Corso  v.6.3
     Shape of augmentation charge: PSQ
     Using radial grid of 1085 points,  4 beta functions with: 
                l(1) =   0
                l(2) =   0
                l(3) =   1
                l(4) =   1
     Q(r) pseudized with 0 coefficients 


     PseudoPot. # 3 for C  read from file:
     pseudo/C.pbe-n-kjpaw_psl.1.0.0.UPF
     MD5 check sum: 5f16ad9a65e90284d1d834d4ab3b0f7d
     Pseudo is Projector augmented-wave + core cor, Zval =  4.0
     Generated using &quot;atomic&quot; code by A. Dal Corso  v.6.3
     Shape of augmentation charge: PSQ
     Using radial grid of 1073 points,  4 beta functions with: 
                l(1) =   0
                l(2) =   0
                l(3) =   1
                l(4) =   1
     Q(r) pseudized with 0 coefficients 


     PseudoPot. # 4 for H  read from file:
     pseudo/H.pbe-kjpaw_psl.1.0.0.UPF
     MD5 check sum: d81a744832360e4a8af0b0b5b123bc2a
     Pseudo is Projector augmented-wave, Zval =  1.0
     Generated using &quot;atomic&quot; code by A. Dal Corso  v.6.3MaX
     Shape of augmentation charge: PSQ
     Using radial grid of  929 points,  2 beta functions with: 
                l(1) =   0
                l(2) =   0
     Q(r) pseudized with 0 coefficients 


     atomic species   valence    mass     pseudopotential
     Cr               14.00    51.99610     Cr( 1.00)
     N                 5.00    14.00670     N ( 1.00)
     C                 4.00    12.01100     C ( 1.00)
     H                 1.00     1.00800     H ( 1.00)

     No symmetry found



   Cartesian axes

     site n.     atom                  positions (alat units)
         1        Cr     tau(   1) = (  -0.1681591   0.2912601   0.8673998  )
         2        Cr     tau(   2) = (   0.3363182   0.0000000   0.8673998  )
         3        Cr     tau(   3) = (   0.0818405   0.1417518   0.8673993  )
         4        Cr     tau(   4) = (   0.1684970   0.2918454   0.6425759  )
         5        Cr     tau(   5) = (  -0.0815030   0.1411673   0.6425759  )
         6        Cr     tau(   6) = (   0.1630059   0.0000000   0.6425759  )
         7        N      tau(   7) = (   0.0000000   0.0000000   0.5261641  )
         8        N      tau(   8) = (   0.2500000   0.1443376   0.7485579  )
         9        N      tau(   9) = (   0.0000000   0.2886752   0.7485579  )
        10        Cr     tau(  10) = (  -0.1730001   0.2996450   1.3148727  )
        11        Cr     tau(  11) = (   0.3460003   0.0000000   1.3148727  )
        12        Cr     tau(  12) = (   0.0770029   0.1333729   1.3148745  )
        13        Cr     tau(  13) = (   0.1677092   0.2904808   1.0968932  )
        14        Cr     tau(  14) = (  -0.0822901   0.1425306   1.0968938  )
        15        Cr     tau(  15) = (   0.1645802   0.0000000   1.0968938  )
        16        N      tau(  16) = (   0.0000000   0.0000000   0.9808490  )
        17        N      tau(  17) = (   0.2500004   0.1443372   1.2145625  )
        18        N      tau(  18) = (  -0.0000005   0.2886753   1.2145625  )
        19        Cr     tau(  19) = (  -0.4181595   0.7242736   0.8673993  )
        20        Cr     tau(  20) = (   0.0863184   0.4330126   0.8674001  )
        21        Cr     tau(  21) = (  -0.1681593   0.5747652   0.8674001  )
        22        Cr     tau(  22) = (  -0.0815030   0.7248581   0.6425759  )
        23        Cr     tau(  23) = (  -0.3315030   0.5741800   0.6425759  )
        24        Cr     tau(  24) = (  -0.0869941   0.4330127   0.6425759  )
        25        N      tau(  25) = (  -0.2500000   0.4330127   0.5261641  )
        26        N      tau(  26) = (   0.0000000   0.5773503   0.7485581  )
        27        N      tau(  27) = (  -0.2500000   0.7216878   0.7485579  )
        28        Cr     tau(  28) = (  -0.4229971   0.7326525   1.3148745  )
        29        Cr     tau(  29) = (   0.0959968   0.4330121   1.3148749  )
        30        Cr     tau(  30) = (  -0.1729989   0.5663837   1.3148749  )
        31        Cr     tau(  31) = (  -0.0822898   0.7234940   1.0968932  )
        32        Cr     tau(  32) = (  -0.3322908   0.5755446   1.0968932  )
        33        Cr     tau(  33) = (  -0.0854193   0.4330133   1.0968932  )
        34        N      tau(  34) = (  -0.2500001   0.4330128   0.9808490  )
        35        N      tau(  35) = (   0.0000000   0.5773503   1.2145635  )
        36        N      tau(  36) = (  -0.2499996   0.7216882   1.2145625  )
        37        Cr     tau(  37) = (   0.3318407   0.2912602   0.8674001  )
        38        Cr     tau(  38) = (   0.8363191   0.0000000   0.8673993  )
        39        Cr     tau(  39) = (   0.5818409   0.1417524   0.8674001  )
        40        Cr     tau(  40) = (   0.6684970   0.2918454   0.6425759  )
        41        Cr     tau(  41) = (   0.4184970   0.1411673   0.6425759  )
        42        Cr     tau(  42) = (   0.6630059   0.0000000   0.6425759  )
        43        N      tau(  43) = (   0.5000000   0.0000000   0.5261641  )
        44        N      tau(  44) = (   0.7500000   0.1443376   0.7485579  )
        45        N      tau(  45) = (   0.5000000   0.2886751   0.7485581  )
        46        Cr     tau(  46) = (   0.3270011   0.2996417   1.3148749  )
        47        Cr     tau(  47) = (   0.8459942   0.0000000   1.3148745  )
        48        Cr     tau(  48) = (   0.5770021   0.1333704   1.3148749  )
        49        Cr     tau(  49) = (   0.6677091   0.2904819   1.0968932  )
        50        Cr     tau(  50) = (   0.4177102   0.1425314   1.0968932  )
        51        Cr     tau(  51) = (   0.6645817   0.0000000   1.0968932  )
        52        N      tau(  52) = (   0.5000001   0.0000000   0.9808490  )
        53        N      tau(  53) = (   0.7500001   0.1443381   1.2145625  )
        54        N      tau(  54) = (   0.5000000   0.2886751   1.2145635  )
        55        Cr     tau(  55) = (   0.0818409   0.7242730   0.8674001  )
        56        Cr     tau(  56) = (   0.5863184   0.4330128   0.8674001  )
        57        Cr     tau(  57) = (   0.3318409   0.5747653   0.8673998  )
        58        Cr     tau(  58) = (   0.4184970   0.7248581   0.6425759  )
        59        Cr     tau(  59) = (   0.1684970   0.5741800   0.6425759  )
        60        Cr     tau(  60) = (   0.4130059   0.4330127   0.6425759  )
        61        N      tau(  61) = (   0.2500000   0.4330127   0.5261641  )
        62        N      tau(  62) = (   0.5000000   0.5773502   0.7485579  )
        63        N      tau(  63) = (   0.2500000   0.7216878   0.7485579  )
        64        Cr     tau(  64) = (   0.0770021   0.7326550   1.3148749  )
        65        Cr     tau(  65) = (   0.5959968   0.4330133   1.3148749  )
        66        Cr     tau(  66) = (   0.3269999   0.5663804   1.3148727  )
        67        Cr     tau(  67) = (   0.4177099   0.7234948   1.0968938  )
        68        Cr     tau(  68) = (   0.1677091   0.5755435   1.0968932  )
        69        Cr     tau(  69) = (   0.4145807   0.4330121   1.0968932  )
        70        N      tau(  70) = (   0.2499999   0.4330126   0.9808490  )
        71        N      tau(  71) = (   0.4999995   0.5773501   1.2145625  )
        72        N      tau(  72) = (   0.2500001   0.7216873   1.2145625  )
        73        C      tau(  73) = (   0.2114989   0.3663269   1.5635703  )
        74        H      tau(  74) = (   0.2114989   0.3663181   1.6782720  )
        75        H      tau(  75) = (   0.2114989   0.2581881   1.5253282  )
        76        H      tau(  76) = (   0.1178455   0.4204007   1.5253406  )
        77        H      tau(  77) = (   0.3051524   0.4204007   1.5253406  )

     --------------------------------------------
     DFT-D3 Dispersion Correction (3-body terms):
     --------------------------------------------
       Reference C6 values for interpolation: 

         atom   Coordination number   C6
         H          0.912             6.05
         H          0.000            15.18
         C          0.000            98.23
         C          0.987            86.49
         C          1.998            58.72
         C          2.999            51.56
         C          3.984            36.41
         N          0.000            50.54
         N          0.994            44.25
         N          2.014            39.35
         N          2.990            31.16
         Cr         0.000          1381.48
         Cr         1.827           571.38
         Cr        10.619           306.69

       Values used:

         atom   Coordination number  R0_AB[au]  C6      C8
         Cr        12.627            3.252    306.69  28303.74
         Cr        12.627            3.252    306.69  28303.74
         Cr        12.627            3.252    306.69  28303.74
         Cr        10.143            3.252    306.69  28303.74
         Cr        10.143            3.252    306.69  28303.74
         Cr        10.143            3.252    306.69  28303.74
         N          3.022            2.478     31.29    690.36
         N          6.023            2.478     31.16    687.49
         N          6.023            2.478     31.16    687.49
         Cr         9.072            3.252    306.69  28303.74
         Cr         9.072            3.252    306.69  28303.74
         Cr         9.091            3.252    306.69  28303.74
         Cr        12.749            3.252    306.69  28303.74
         Cr        12.748            3.252    306.69  28303.74
         Cr        12.748            3.252    306.69  28303.74
         N          6.047            2.478     31.16    687.49
         N          6.033            2.478     31.16    687.49
         N          6.033            2.478     31.16    687.49
         Cr        12.627            3.252    306.69  28303.74
         Cr        12.627            3.252    306.69  28303.74
         Cr        12.627            3.252    306.69  28303.74
         Cr        10.143            3.252    306.69  28303.74
         Cr        10.143            3.252    306.69  28303.74
         Cr        10.143            3.252    306.69  28303.74
         N          3.022            2.478     31.29    690.36
         N          6.023            2.478     31.16    687.49
         N          6.023            2.478     31.16    687.49
         Cr         9.071            3.252    306.69  28303.74
         Cr         9.575            3.252    306.69  28303.74
         Cr         9.072            3.252    306.69  28303.74
         Cr        12.748            3.252    306.69  28303.74
         Cr        12.748            3.252    306.69  28303.74
         Cr        12.748            3.252    306.69  28303.74
         N          6.047            2.478     31.16    687.49
         N          6.032            2.478     31.16    687.49
         N          6.032            2.478     31.16    687.49
         Cr        12.627            3.252    306.69  28303.74
         Cr        12.627            3.252    306.69  28303.74
         Cr        12.627            3.252    306.69  28303.74
         Cr        10.143            3.252    306.69  28303.74
         Cr        10.143            3.252    306.69  28303.74
         Cr        10.143            3.252    306.69  28303.74
         N          3.022            2.478     31.29    690.36
         N          6.023            2.478     31.16    687.49
         N          6.023            2.478     31.16    687.49
         Cr         9.393            3.252    306.69  28303.74
         Cr         9.071            3.252    306.69  28303.74
         Cr         9.071            3.252    306.69  28303.74
         Cr        12.748            3.252    306.69  28303.74
         Cr        12.748            3.252    306.69  28303.74
         Cr        12.748            3.252    306.69  28303.74
         N          6.047            2.478     31.16    687.49
         N          6.032            2.478     31.16    687.49
         N          6.032            2.478     31.16    687.49
         Cr        12.627            3.252    306.69  28303.74
         Cr        12.627            3.252    306.69  28303.74
         Cr        12.627            3.252    306.69  28303.74
         Cr        10.143            3.252    306.69  28303.74
         Cr        10.143            3.252    306.69  28303.74
         Cr        10.143            3.252    306.69  28303.74
         N          3.022            2.478     31.29    690.36
         N          6.023            2.478     31.16    687.49
         N          6.023            2.478     31.16    687.49
         Cr         9.072            3.252    306.69  28303.74
         Cr         9.072            3.252    306.69  28303.74
         Cr         9.122            3.252    306.69  28303.74
         Cr        12.748            3.252    306.69  28303.74
         Cr        12.748            3.252    306.69  28303.74
         Cr        12.748            3.252    306.69  28303.74
         N          6.047            2.478     31.16    687.49
         N          6.032            2.478     31.16    687.49
         N          6.032            2.478     31.16    687.49
         C          4.450            2.750     36.42   1053.34
         H          0.997            2.062      6.18     74.75
         H          1.065            2.062      6.13     74.14
         H          1.279            2.062      6.07     73.38
         H          1.081            2.062      6.12     74.04

         Molecular C6 ( Ry / a.u.^6 ) =    974387.89


     number of k points=    10  Methfessel-Paxton smearing, width (Ry)=  0.0200
                       cart. coord. in units 2pi/alat
        k(    1) = (   0.0000000   0.0000000   0.0000000), wk =   0.1250000
        k(    2) = (   0.0000000   0.2886753   0.0000000), wk =   0.2500000
        k(    3) = (   0.0000000  -0.5773505   0.0000000), wk =   0.1250000
        k(    4) = (   0.2500000   0.4330129   0.0000000), wk =   0.2500000
        k(    5) = (  -0.2500000   0.1443376   0.0000000), wk =   0.2500000
        k(    6) = (   0.2500000   0.1443376   0.0000000), wk =   0.2500000
        k(    7) = (   0.5000000  -0.2886753   0.0000000), wk =   0.1250000
        k(    8) = (  -0.5000000  -0.2886753   0.0000000), wk =   0.1250000
        k(    9) = (  -0.2500000   0.4330129   0.0000000), wk =   0.2500000
        k(   10) = (   0.5000000  -0.0000000   0.0000000), wk =   0.2500000

     Dense  grid:  4502593 G-vectors     FFT dimensions: ( 180, 180, 375)

     Smooth grid:   866593 G-vectors     FFT dimensions: (  96,  96, 216)

     Estimated max dynamical RAM per process >     867.27 MB

     Estimated total dynamical RAM >      50.98 GB

     Atomic positions and unit cell read from directory:
     tmp/CH4-H31_Rot0_bridge_/CH4-H31_Rot0_bridge_.save/
     Atomic positions from file used, from input discarded
 

     The initial density is read from file :
     tmp/CH4-H31_Rot0_bridge_/CH4-H31_Rot0_bridge_.save/charge-density


     negative rho (up, down):  2.090E-04 0.000E+00
     Starting wfcs from file
     Checking if some PAW data can be deallocated... 
     Calculation restarted from scf iteration #    22

     total cpu time spent up to now is        6.0 secs

     Self-consistent Calculation

     iteration # 22     ecut=    70.00 Ry     beta= 0.20
     Calculation restarted from kpoint #     3
     Davidson diagonalization with overlap
     c_bands:  4 eigenvalues not converged
     ethr =  2.10E-11,  avg # of iterations =  9.6

     negative rho (up, down):  2.089E-04 0.000E+00

     total cpu time spent up to now is       54.4 secs

     total energy              =  -12616.46470467 Ry
     estimated scf accuracy    <       0.00000029 Ry

     iteration # 23     ecut=    70.00 Ry     beta= 0.20
     Davidson diagonalization with overlap
     ethr =  2.10E-11,  avg # of iterations =  1.3

     negative rho (up, down):  2.089E-04 0.000E+00

     total cpu time spent up to now is       92.3 secs

     total energy              =  -12616.46470467 Ry
     estimated scf accuracy    <       0.00000158 Ry

     iteration # 24     ecut=    70.00 Ry     beta= 0.20
     Davidson diagonalization with overlap
     ethr =  2.10E-11,  avg # of iterations =  1.0

     negative rho (up, down):  2.089E-04 0.000E+00

     total cpu time spent up to now is      130.1 secs

     total energy              =  -12616.46470467 Ry
     estimated scf accuracy    <       0.00000009 Ry

     iteration # 25     ecut=    70.00 Ry     beta= 0.20
     Davidson diagonalization with overlap
     ethr =  1.18E-11,  avg # of iterations =  1.8

     negative rho (up, down):  2.089E-04 0.000E+00

     total cpu time spent up to now is      168.9 secs

     total energy              =  -12616.46470468 Ry
     estimated scf accuracy    <       0.00000008 Ry

     iteration # 26     ecut=    70.00 Ry     beta= 0.20
     Davidson diagonalization with overlap
     ethr =  9.72E-12,  avg # of iterations =  1.2

     negative rho (up, down):  2.089E-04 0.000E+00

     total cpu time spent up to now is      206.6 secs

     total energy              =  -12616.46470469 Ry
     estimated scf accuracy    <       0.00000010 Ry

     iteration # 27     ecut=    70.00 Ry     beta= 0.20
     Davidson diagonalization with overlap
     ethr =  9.72E-12,  avg # of iterations =  1.0

     negative rho (up, down):  2.089E-04 0.000E+00

     total cpu time spent up to now is      242.2 secs

     total energy              =  -12616.46470469 Ry
     estimated scf accuracy    <       0.00000011 Ry

     iteration # 28     ecut=    70.00 Ry     beta= 0.20
     Davidson diagonalization with overlap
     ethr =  9.72E-12,  avg # of iterations =  1.0

     negative rho (up, down):  2.089E-04 0.000E+00

     total cpu time spent up to now is      277.6 secs

     total energy              =  -12616.46470469 Ry
     estimated scf accuracy    <       0.00000002 Ry

     iteration # 29     ecut=    70.00 Ry     beta= 0.20
     Davidson diagonalization with overlap
     ethr =  2.32E-12,  avg # of iterations =  2.2

     negative rho (up, down):  2.089E-04 0.000E+00

     total cpu time spent up to now is      316.7 secs

     total energy              =  -12616.46470469 Ry
     estimated scf accuracy    <       0.00000004 Ry

     iteration # 30     ecut=    70.00 Ry     beta= 0.20
     Davidson diagonalization with overlap
     ethr =  2.32E-12,  avg # of iterations =  1.4

     negative rho (up, down):  2.089E-04 0.000E+00

     total cpu time spent up to now is      354.7 secs

     total energy              =  -12616.46470469 Ry
     estimated scf accuracy    <       0.00000002 Ry

     iteration # 31     ecut=    70.00 Ry     beta= 0.20
     Davidson diagonalization with overlap
     ethr =  2.32E-12,  avg # of iterations =  1.3

     negative rho (up, down):  2.089E-04 0.000E+00

     total cpu time spent up to now is      392.7 secs

     total energy              =  -12616.46470469 Ry
     estimated scf accuracy    <       0.00000001 Ry

     iteration # 32     ecut=    70.00 Ry     beta= 0.20
     Davidson diagonalization with overlap
     ethr =  1.81E-12,  avg # of iterations =  1.0

     negative rho (up, down):  2.089E-04 0.000E+00

     total cpu time spent up to now is      428.1 secs

     End of self-consistent calculation

          k = 0.0000 0.0000 0.0000 (108303 PWs)   bands (ev):

   -66.9115 -66.8757 -66.8719 -66.8697 -66.8677 -66.8629 -66.8616 -66.8587
   -66.8431 -66.8384 -66.8379 -66.8361 -66.8309 -66.8294 -66.8279 -66.8267
   -66.8257 -66.8226 -66.8218 -66.8090 -66.8081 -66.8041 -66.8030 -66.7953
   -66.6656 -66.6428 -66.6426 -66.6415 -66.6167 -66.6165 -66.6133 -66.6048
   -66.6027 -66.6019 -66.5973 -66.5964 -66.5671 -66.5412 -66.5281 -66.5267
   -66.5237 -66.5014 -66.4872 -66.4784 -66.4759 -66.4717 -66.4689 -66.4672
   -38.7053 -38.6789 -38.6760 -38.6662 -38.5815 -38.5812 -38.5781 -38.5377
   -38.5370 -38.5249 -38.5183 -38.5150 -38.5143 -38.4731 -38.4687 -38.4670
   -38.4625 -38.4615 -38.4604 -38.4316 -38.4295 -38.4238 -38.3892 -38.3868
   -38.3848 -38.3808 -38.3805 -38.3769 -38.3700 -38.3362 -38.3296 -38.3279
   -38.2984 -38.2880 -38.2835 -38.2779 -38.2770 -38.2730 -38.2475 -38.2445
   -38.2435 -38.2253 -38.2176 -38.2138 -38.2033 -38.2021 -38.2016 -38.1996
   -38.1856 -38.1851 -38.1809 -38.1797 -38.1765 -38.1722 -38.1669 -38.1638
   -38.1556 -38.1536 -38.1512 -38.1499 -38.1493 -38.1479 -38.1364 -38.1361
   -38.1288 -38.1268 -38.1253 -38.1196 -38.1167 -38.1117 -38.1029 -38.0763
   -38.0669 -38.0654 -38.0637 -38.0551 -38.0549 -38.0502 -38.0409 -38.0381
   -38.0354 -38.0316 -38.0266 -38.0213 -38.0192 -38.0105 -38.0025 -37.9964
   -37.9942 -37.9913 -37.9827 -37.9557 -37.9523 -37.9515 -37.9469 -37.9465
   -37.9394 -37.9392 -37.9269 -37.9215 -37.9192 -37.9083 -37.9048 -37.9047
   -37.8752 -37.8741 -37.8645 -37.8609 -37.8589 -37.8484 -37.8451 -37.8426
   -37.8417 -37.8397 -37.8362 -37.8344 -37.8285 -37.8173 -37.8150 -37.8134
   -37.8108 -37.8102 -37.8064 -37.8004 -37.7774 -37.7770 -37.7734 -37.7671
   -37.7643 -37.7633 -37.7396 -37.7390 -37.7364 -37.7263 -37.7154 -37.7089
   -37.6324 -37.5989 -37.5830 -37.5779 -37.5670 -37.5535 -37.5476 -37.5410
   -12.3624 -11.9044 -11.6694 -11.6628 -11.6597 -11.5410 -11.5261 -11.4815
   -11.4466 -11.4455 -11.4451 -11.2166 -11.1961 -11.1648 -11.1448 -11.0815
   -11.0758 -11.0614 -10.8587 -10.7721  -9.3346  -9.1398  -9.1382  -9.1367
    -9.0322  -2.8830  -2.8753  -2.8640  -2.6766  -2.6403  -2.6241  -2.5645
    -2.4337  -2.4190  -2.4137  -2.4089  -2.4026  -2.3762  -2.3079  -2.2768
    -2.2740  -2.2452  -2.1596  -2.1532  -2.1513  -2.1318  -2.1130  -1.8961
    -1.6645  -1.6277  -1.6174  -1.4425  -1.4238  -1.3901  -1.3714  -1.3409
    -1.3378  -1.3103  -1.3049  -1.2975  -1.2894  -1.2021  -1.1940  -1.1789
    -1.1718  -1.1559  -1.1192  -1.1139  -1.0842  -1.0530  -0.9382  -0.8903
    -0.8264  -0.8100  -0.7588  -0.7489  -0.7305  -0.7161  -0.6998  -0.6947
    -0.6883  -0.6655  -0.5510  -0.4919  -0.4713  -0.2667  -0.2411  -0.2349
     0.6616   0.9266   0.9271   0.9277   1.1839   1.1853   1.1874   1.2020
     1.2033   1.2081   1.2098   1.2110   1.3136   1.6698   1.6828   1.6907
     1.8503   1.8600   1.8882   2.0831   2.0885   2.0921   2.1574   2.2893
     2.3101   2.3273   2.4037   2.4237   2.4260   2.5229   2.5379   2.5399
     2.5530   2.5671   2.5696   2.5964   2.6095   2.6113   2.6511   2.8014
     2.8134   2.8231   2.8373   2.8466   3.2463   3.2700   3.2771   3.3754
     3.3767   3.4320   3.4466   3.4530   3.4598   3.4679   3.4731   3.5490
     3.5638   3.5737   3.5999   3.6198   3.6791   3.7285   3.7357   3.7424
     3.7719   3.7837   3.7861   3.8132   3.8286   3.8373   3.8497   3.8521
     3.8582   3.8669   4.0600   4.0956   4.1181   4.2347   4.2414   4.2524
     4.2602   4.2724   4.3445   4.3761   4.4157   4.4266   4.4326   4.4611
     4.4744   4.4916   4.5143   4.5345   4.5364   4.5472   4.5477   4.5594
     4.6080   4.6098   4.6939   4.7578   4.7593   4.8474   4.8564   4.8665
     4.8936   4.9028   4.9081   4.9190   4.9448   4.9897   4.9951   5.0155
     5.0239   5.0333   5.0681   5.0712   5.1547   5.1910   5.2218   5.2287
     5.2702   5.2973   5.5041   5.5123   5.5153   5.5412   5.6002   5.6091
     5.6334   5.6403   5.6537   5.6856   5.7032   5.7059   5.7489   5.7644
     5.7881   5.7941   5.7986   5.8057   5.8362   5.8386   5.8417   5.8571
     5.9076   5.9304   5.9398   5.9463   5.9701   5.9740   5.9956   6.0004
     6.0334   6.0553   6.0763   6.0945   6.0974   6.1024   6.1113   6.1207
     6.1342   6.1463   6.1613   6.1824   6.1969   6.2307   6.2392   6.2448
     6.3026   6.3151   6.3158   6.3255   6.3281   6.3700   6.3834   6.3924
     6.3947   6.3959   6.4075   6.4353   6.4384   6.4722   6.4915   6.5693
     6.6772   6.6796   6.6880   6.6887   6.6916   6.7211   6.7405   6.7477
     6.7820   6.7998   6.8155   6.8224   6.8362   6.8560   6.9182   6.9498

          k = 0.0000 0.2887 0.0000 (108355 PWs)   bands (ev):

   -66.9082 -66.8853 -66.8764 -66.8743 -66.8613 -66.8578 -66.8560 -66.8520
   -66.8442 -66.8409 -66.8402 -66.8371 -66.8331 -66.8323 -66.8307 -66.8284
   -66.8238 -66.8187 -66.8176 -66.8097 -66.8086 -66.8040 -66.8028 -66.7965
   -66.6631 -66.6475 -66.6432 -66.6422 -66.6150 -66.6137 -66.6100 -66.6052
   -66.6040 -66.6020 -66.5984 -66.5976 -66.5666 -66.5407 -66.5310 -66.5273
   -66.5224 -66.5008 -66.4855 -66.4785 -66.4754 -66.4719 -66.4698 -66.4678
   -38.7013 -38.6807 -38.6729 -38.6644 -38.5770 -38.5748 -38.5717 -38.5457
   -38.5407 -38.5326 -38.5268 -38.5240 -38.5105 -38.4852 -38.4734 -38.4694
   -38.4577 -38.4550 -38.4536 -38.4315 -38.4282 -38.4166 -38.4119 -38.4057
   -38.3797 -38.3780 -38.3765 -38.3541 -38.3488 -38.3421 -38.3394 -38.3323
   -38.2934 -38.2895 -38.2837 -38.2728 -38.2658 -38.2625 -38.2480 -38.2446
   -38.2415 -38.2327 -38.2235 -38.2193 -38.2025 -38.2005 -38.1990 -38.1985
   -38.1927 -38.1900 -38.1881 -38.1796 -38.1772 -38.1754 -38.1689 -38.1672
   -38.1650 -38.1624 -38.1580 -38.1522 -38.1468 -38.1363 -38.1299 -38.1263
   -38.1255 -38.1233 -38.1194 -38.1173 -38.1105 -38.1045 -38.0998 -38.0795
   -38.0703 -38.0676 -38.0634 -38.0578 -38.0548 -38.0532 -38.0499 -38.0421
   -38.0364 -38.0342 -38.0262 -38.0227 -38.0171 -38.0120 -38.0067 -38.0037
   -37.9995 -37.9914 -37.9613 -37.9571 -37.9542 -37.9521 -37.9469 -37.9399
   -37.9373 -37.9317 -37.9229 -37.9198 -37.9175 -37.9100 -37.9078 -37.9046
   -37.8785 -37.8741 -37.8659 -37.8605 -37.8554 -37.8505 -37.8461 -37.8435
   -37.8408 -37.8378 -37.8359 -37.8324 -37.8258 -37.8205 -37.8169 -37.8146
   -37.8120 -37.8085 -37.8068 -37.8023 -37.7777 -37.7773 -37.7737 -37.7635
   -37.7623 -37.7590 -37.7484 -37.7420 -37.7344 -37.7268 -37.7161 -37.7091
   -37.6314 -37.5959 -37.5822 -37.5748 -37.5658 -37.5574 -37.5503 -37.5435
   -12.2979 -11.8698 -11.8579 -11.7213 -11.7096 -11.5744 -11.5048 -11.4763
   -11.4059 -11.3999 -11.3361 -11.2027 -11.1736 -11.1619 -11.1102 -11.0991
   -11.0848 -11.0270 -10.8924 -10.8086  -9.3347  -9.1425  -9.1396  -9.1206
    -9.0457  -2.8559  -2.8462  -2.7951  -2.6921  -2.6365  -2.6067  -2.5886
    -2.5739  -2.5660  -2.5112  -2.4367  -2.4178  -2.3126  -2.2342  -2.2052
    -2.2022  -2.1899  -2.1651  -2.1256  -2.0673  -2.0455  -2.0139  -1.9003
    -1.8075  -1.6506  -1.6251  -1.5750  -1.5036  -1.4613  -1.4308  -1.3785
    -1.3409  -1.3313  -1.2943  -1.2721  -1.2493  -1.2250  -1.2019  -1.1836
    -1.1666  -1.1284  -1.1189  -1.0957  -1.0813  -0.9808  -0.9203  -0.8837
    -0.8562  -0.8158  -0.7745  -0.7487  -0.7163  -0.7056  -0.6952  -0.6778
    -0.6535  -0.6281  -0.5634  -0.4788  -0.4501  -0.3324  -0.2780  -0.2637
     0.7506   0.9220   0.9258   0.9265   1.1554   1.1572   1.1593   1.1827
     1.2130   1.2171   1.2208   1.2755   1.3712   1.6274   1.7051   1.7209
     1.8754   1.8946   1.9399   2.0938   2.0993   2.1306   2.1700   2.2548
     2.2697   2.3837   2.3963   2.4078   2.4321   2.5219   2.5356   2.5581
     2.5665   2.5733   2.6215   2.6457   2.6619   2.6670   2.7140   2.7395
     2.8335   2.8416   2.8504   2.9320   3.1036   3.1733   3.2569   3.2972
     3.3131   3.3231   3.3328   3.3666   3.4574   3.4693   3.4918   3.5070
     3.5142   3.5312   3.6317   3.6530   3.6866   3.7060   3.7138   3.7568
     3.7799   3.8032   3.8170   3.8228   3.8570   3.8715   3.8891   3.9322
     4.0624   4.0904   4.1072   4.1184   4.1450   4.1587   4.1718   4.2553
     4.2633   4.2816   4.3157   4.3369   4.3570   4.3839   4.3902   4.4067
     4.4211   4.4363   4.4685   4.4917   4.5203   4.5435   4.5536   4.5647
     4.5982   4.6409   4.6544   4.7254   4.7677   4.8055   4.8285   4.8542
     4.8922   4.9159   4.9353   4.9651   4.9811   5.0211   5.0338   5.0541
     5.0593   5.0739   5.0881   5.1314   5.1618   5.2043   5.2432   5.2537
     5.2733   5.2986   5.3893   5.4461   5.4548   5.4689   5.5210   5.5605
     5.5683   5.5881   5.5959   5.6192   5.6515   5.6644   5.6895   5.6971
     5.7185   5.7843   5.8012   5.8261   5.8337   5.8492   5.8621   5.8790
     5.8950   5.9028   5.9148   5.9220   5.9698   5.9801   5.9957   6.0104
     6.0188   6.0455   6.0625   6.0698   6.0823   6.1008   6.1185   6.1236
     6.1394   6.1467   6.1660   6.1723   6.1834   6.2032   6.2445   6.3021
     6.3191   6.3234   6.3557   6.3675   6.3758   6.3797   6.3907   6.4217
     6.4356   6.4409   6.4537   6.4887   6.5076   6.5174   6.5412   6.5546
     6.5637   6.5848   6.6382   6.6579   6.6699   6.7212   6.7449   6.7571
     6.7693   6.8058   6.8243   6.8373   6.8509   6.8859   6.9194   6.9408

          k = 0.0000-0.5774 0.0000 (108310 PWs)   bands (ev):

   -66.8995 -66.8979 -66.8785 -66.8763 -66.8563 -66.8531 -66.8497 -66.8490
   -66.8457 -66.8449 -66.8412 -66.8384 -66.8348 -66.8342 -66.8335 -66.8302
   -66.8219 -66.8159 -66.8140 -66.8110 -66.8099 -66.8045 -66.8006 -66.7987
   -66.6568 -66.6557 -66.6437 -66.6427 -66.6128 -66.6107 -66.6068 -66.6062
   -66.6039 -66.6030 -66.6009 -66.5988 -66.5660 -66.5396 -66.5341 -66.5276
   -66.5217 -66.5002 -66.4837 -66.4784 -66.4748 -66.4721 -66.4708 -66.4684
   -38.6927 -38.6887 -38.6690 -38.6613 -38.5682 -38.5651 -38.5632 -38.5589
   -38.5425 -38.5410 -38.5377 -38.5339 -38.5037 -38.5001 -38.4756 -38.4718
   -38.4445 -38.4438 -38.4415 -38.4385 -38.4360 -38.4332 -38.4165 -38.4134
   -38.3673 -38.3645 -38.3606 -38.3594 -38.3541 -38.3513 -38.3361 -38.3334
   -38.3006 -38.2981 -38.2657 -38.2610 -38.2602 -38.2548 -38.2432 -38.2396
   -38.2328 -38.2323 -38.2311 -38.2254 -38.2154 -38.2122 -38.1985 -38.1970
   -38.1944 -38.1941 -38.1878 -38.1872 -38.1783 -38.1750 -38.1744 -38.1724
   -38.1692 -38.1580 -38.1545 -38.1540 -38.1513 -38.1493 -38.1263 -38.1221
   -38.1191 -38.1126 -38.1098 -38.1065 -38.1039 -38.0955 -38.0905 -38.0864
   -38.0831 -38.0777 -38.0684 -38.0621 -38.0532 -38.0499 -38.0455 -38.0436
   -38.0388 -38.0354 -38.0267 -38.0257 -38.0224 -38.0184 -38.0125 -38.0032
   -38.0004 -37.9894 -37.9601 -37.9579 -37.9551 -37.9456 -37.9439 -37.9415
   -37.9305 -37.9270 -37.9197 -37.9186 -37.9174 -37.9092 -37.9021 -37.8920
   -37.8891 -37.8766 -37.8708 -37.8623 -37.8520 -37.8511 -37.8481 -37.8433
   -37.8419 -37.8374 -37.8339 -37.8293 -37.8232 -37.8207 -37.8196 -37.8180
   -37.8132 -37.8076 -37.8058 -37.8045 -37.7778 -37.7760 -37.7675 -37.7663
   -37.7604 -37.7599 -37.7510 -37.7479 -37.7318 -37.7278 -37.7168 -37.7095
   -37.6301 -37.5925 -37.5782 -37.5711 -37.5688 -37.5635 -37.5506 -37.5464
   -12.1227 -12.1154 -11.7557 -11.7442 -11.7382 -11.7317 -11.5046 -11.4832
   -11.3314 -11.3295 -11.2263 -11.2180 -11.2139 -11.1695 -11.1216 -11.1175
   -11.0058 -10.9676 -10.9106 -10.9051  -9.3347  -9.1454  -9.1424  -9.0826
    -9.0797  -2.8329  -2.8152  -2.7192  -2.7024  -2.6616  -2.6355  -2.6288
    -2.6271  -2.5760  -2.4953  -2.4619  -2.3918  -2.3645  -2.2314  -2.2189
    -2.1788  -2.1755  -2.1328  -2.1038  -1.9795  -1.9519  -1.9164  -1.8745
    -1.8586  -1.7067  -1.6952  -1.6075  -1.5598  -1.5470  -1.4809  -1.4325
    -1.4233  -1.3451  -1.3094  -1.3020  -1.2726  -1.2108  -1.1889  -1.1467
    -1.1226  -1.1097  -1.1017  -1.0786  -0.9795  -0.9769  -0.9203  -0.9000
    -0.8705  -0.8580  -0.7841  -0.7421  -0.7302  -0.7073  -0.6689  -0.6603
    -0.6101  -0.5856  -0.5329  -0.5015  -0.4484  -0.4140  -0.3013  -0.2845
     0.8711   0.8736   0.9183   0.9197   1.1678   1.1703   1.1809   1.1863
     1.1989   1.1991   1.2416   1.2450   1.4768   1.4904   1.7242   1.7436
     2.0001   2.0119   2.0241   2.0310   2.1244   2.1365   2.1608   2.1787
     2.2993   2.3134   2.4696   2.4772   2.4819   2.4881   2.5263   2.5404
     2.5754   2.5787   2.5800   2.5866   2.6845   2.6956   2.8336   2.8423
     2.8566   2.8602   2.9212   2.9317   3.1263   3.1296   3.1423   3.1445
     3.1969   3.2060   3.3027   3.3229   3.4237   3.4289   3.4714   3.5091
     3.5245   3.5263   3.6121   3.6219   3.6932   3.7214   3.7523   3.7609
     3.8182   3.8321   3.8861   3.8947   3.9076   3.9862   3.9905   4.0029
     4.0345   4.0481   4.0650   4.0889   4.1019   4.1175   4.2142   4.2347
     4.2419   4.2544   4.3210   4.3508   4.3630   4.3807   4.4236   4.4253
     4.4361   4.4585   4.4685   4.4923   4.5009   4.5317   4.5369   4.5579
     4.5720   4.6059   4.6987   4.7032   4.7219   4.7307   4.7485   4.7548
     4.7718   4.7966   4.9000   4.9400   5.0463   5.0839   5.0936   5.1102
     5.1344   5.1526   5.1572   5.1820   5.2121   5.2240   5.2399   5.2515
     5.2760   5.2967   5.3418   5.4260   5.4425   5.4505   5.4578   5.4680
     5.5084   5.5203   5.5488   5.6138   5.6386   5.6480   5.6624   5.6718
     5.6818   5.7068   5.7141   5.8069   5.8175   5.8293   5.8463   5.8586
     5.8628   5.8882   5.8961   5.9242   5.9450   5.9607   5.9766   5.9842
     6.0007   6.0077   6.0231   6.0535   6.0830   6.0989   6.1111   6.1287
     6.1403   6.1561   6.1735   6.2293   6.2640   6.2743   6.2773   6.2922
     6.3000   6.3057   6.3303   6.3363   6.3424   6.3903   6.4456   6.4543
     6.4749   6.4944   6.4988   6.5268   6.5337   6.5344   6.5410   6.5460
     6.5612   6.6025   6.6293   6.6416   6.7043   6.7217   6.7358   6.7554
     6.7625   6.7804   6.8393   6.8597   6.9529   6.9574   6.9764   6.9924

          k = 0.2500 0.4330 0.0000 (108308 PWs)   bands (ev):

   -66.9018 -66.8919 -66.8879 -66.8664 -66.8617 -66.8545 -66.8493 -66.8482
   -66.8454 -66.8427 -66.8403 -66.8390 -66.8380 -66.8344 -66.8335 -66.8255
   -66.8245 -66.8162 -66.8136 -66.8120 -66.8092 -66.8039 -66.8011 -66.7986
   -66.6585 -66.6504 -66.6504 -66.6394 -66.6138 -66.6091 -66.6078 -66.6065
   -66.6041 -66.6018 -66.6009 -66.5992 -66.5660 -66.5396 -66.5343 -66.5276
   -66.5216 -66.5004 -66.4828 -66.4791 -66.4750 -66.4724 -66.4707 -66.4681
   -38.6937 -38.6847 -38.6757 -38.6576 -38.5695 -38.5677 -38.5601 -38.5554
   -38.5439 -38.5422 -38.5377 -38.5343 -38.5035 -38.4930 -38.4916 -38.4555
   -38.4531 -38.4450 -38.4433 -38.4386 -38.4283 -38.4264 -38.4219 -38.4182
   -38.3665 -38.3658 -38.3633 -38.3568 -38.3503 -38.3429 -38.3405 -38.3368
   -38.3242 -38.2690 -38.2677 -38.2648 -38.2625 -38.2510 -38.2490 -38.2375
   -38.2370 -38.2332 -38.2287 -38.2233 -38.2130 -38.2025 -38.2011 -38.1986
   -38.1981 -38.1938 -38.1905 -38.1882 -38.1787 -38.1784 -38.1776 -38.1701
   -38.1647 -38.1637 -38.1583 -38.1534 -38.1449 -38.1407 -38.1386 -38.1215
   -38.1142 -38.1136 -38.1086 -38.1075 -38.1037 -38.0949 -38.0933 -38.0820
   -38.0793 -38.0784 -38.0722 -38.0634 -38.0566 -38.0463 -38.0455 -38.0404
   -38.0366 -38.0353 -38.0333 -38.0300 -38.0232 -38.0138 -38.0116 -38.0042
   -37.9959 -37.9923 -37.9608 -37.9586 -37.9556 -37.9481 -37.9464 -37.9390
   -37.9341 -37.9228 -37.9215 -37.9144 -37.9119 -37.9063 -37.9033 -37.9015
   -37.8865 -37.8741 -37.8645 -37.8640 -37.8572 -37.8508 -37.8486 -37.8480
   -37.8384 -37.8365 -37.8332 -37.8323 -37.8238 -37.8229 -37.8184 -37.8167
   -37.8118 -37.8072 -37.8055 -37.8039 -37.7786 -37.7754 -37.7709 -37.7654
   -37.7624 -37.7556 -37.7531 -37.7463 -37.7320 -37.7277 -37.7169 -37.7094
   -37.6301 -37.5901 -37.5810 -37.5727 -37.5682 -37.5627 -37.5523 -37.5443
   -12.1762 -11.9631 -11.9611 -11.7748 -11.6358 -11.6291 -11.5938 -11.4369
   -11.3530 -11.2785 -11.2707 -11.2663 -11.2089 -11.1979 -11.0957 -11.0485
   -10.9947 -10.9942 -10.9565 -10.8769  -9.3347  -9.1594  -9.1102  -9.1099
    -9.0705  -2.8652  -2.7872  -2.7514  -2.7301  -2.6546  -2.6231  -2.5833
    -2.5609  -2.5166  -2.4793  -2.4607  -2.4503  -2.4420  -2.3837  -2.2204
    -2.0953  -2.0809  -2.0686  -2.0355  -2.0173  -1.9855  -1.9492  -1.9324
    -1.8839  -1.7818  -1.6613  -1.6261  -1.5397  -1.5327  -1.4600  -1.3977
    -1.3855  -1.3305  -1.3231  -1.2639  -1.2602  -1.2322  -1.2221  -1.2043
    -1.1638  -1.1272  -1.0402  -1.0263  -1.0093  -0.9838  -0.9478  -0.9157
    -0.8390  -0.7869  -0.7770  -0.7403  -0.7358  -0.7046  -0.6988  -0.6762
    -0.6450  -0.6002  -0.5446  -0.5143  -0.4126  -0.3729  -0.3594  -0.2476
     0.8446   0.8996   0.9017   0.9382   1.1366   1.1397   1.1846   1.1874
     1.1884   1.2462   1.2527   1.2534   1.4478   1.5789   1.5986   1.7927
     1.9446   2.0527   2.0553   2.0842   2.1528   2.1544   2.1677   2.1726
     2.2490   2.3333   2.3452   2.4103   2.4757   2.4843   2.5092   2.5122
     2.5507   2.6179   2.6624   2.6761   2.6946   2.7616   2.7720   2.8200
     2.8977   2.9043   2.9172   2.9460   3.0124   3.0161   3.0365   3.1254
     3.2588   3.3443   3.3805   3.4031   3.4329   3.4424   3.4613   3.5219
     3.5394   3.5482   3.5605   3.6376   3.6431   3.6523   3.7351   3.7883
     3.7965   3.8249   3.8563   3.8604   3.8831   3.9335   3.9600   3.9808
     4.0994   4.1204   4.1301   4.1477   4.1555   4.1763   4.1887   4.2079
     4.2425   4.2677   4.3055   4.3192   4.3254   4.3579   4.3900   4.4015
     4.4256   4.4453   4.4814   4.4986   4.5089   4.5174   4.5552   4.5598
     4.6349   4.6445   4.6724   4.6786   4.6853   4.6992   4.7608   4.7626
     4.7908   4.9326   4.9382   4.9621   4.9818   4.9951   5.0150   5.0356
     5.0598   5.1106   5.1247   5.1648   5.2109   5.2510   5.2735   5.2815
     5.3249   5.3512   5.4004   5.4054   5.4270   5.4422   5.5018   5.5233
     5.5249   5.5349   5.5462   5.5785   5.5953   5.6101   5.6738   5.6907
     5.7109   5.7211   5.7925   5.8140   5.8192   5.8377   5.8651   5.8711
     5.8745   5.8808   5.8903   5.8993   5.9258   5.9582   5.9676   5.9720
     5.9797   5.9929   6.0221   6.0399   6.0712   6.0970   6.0990   6.1396
     6.1462   6.1614   6.1738   6.1921   6.2048   6.2286   6.2417   6.2800
     6.2991   6.3079   6.3383   6.3626   6.3671   6.4020   6.4084   6.4412
     6.4493   6.4533   6.4870   6.5130   6.5554   6.5670   6.5891   6.6140
     6.6207   6.6429   6.6663   6.6700   6.7058   6.7361   6.7478   6.7618
     6.7663   6.8084   6.8334   6.8572   6.8922   6.9030   6.9639   6.9782

          k =-0.2500 0.1443 0.0000 (108355 PWs)   bands (ev):

   -66.9082 -66.8845 -66.8782 -66.8738 -66.8597 -66.8577 -66.8568 -66.8519
   -66.8445 -66.8409 -66.8393 -66.8369 -66.8352 -66.8323 -66.8312 -66.8278
   -66.8230 -66.8194 -66.8165 -66.8097 -66.8079 -66.8047 -66.8037 -66.7959
   -66.6631 -66.6473 -66.6435 -66.6422 -66.6148 -66.6127 -66.6108 -66.6061
   -66.6034 -66.6020 -66.5989 -66.5971 -66.5666 -66.5405 -66.5301 -66.5270
   -66.5242 -66.5004 -66.4850 -66.4781 -66.4763 -66.4723 -66.4694 -66.4676
   -38.7015 -38.6794 -38.6751 -38.6633 -38.5757 -38.5741 -38.5734 -38.5447
   -38.5412 -38.5341 -38.5255 -38.5249 -38.5115 -38.4863 -38.4731 -38.4653
   -38.4606 -38.4541 -38.4536 -38.4318 -38.4259 -38.4199 -38.4123 -38.4049
   -38.3793 -38.3773 -38.3753 -38.3544 -38.3479 -38.3439 -38.3386 -38.3316
   -38.2951 -38.2917 -38.2856 -38.2704 -38.2657 -38.2619 -38.2483 -38.2443
   -38.2418 -38.2292 -38.2229 -38.2223 -38.2022 -38.2006 -38.1999 -38.1982
   -38.1946 -38.1893 -38.1874 -38.1793 -38.1758 -38.1730 -38.1709 -38.1700
   -38.1654 -38.1624 -38.1572 -38.1499 -38.1454 -38.1406 -38.1332 -38.1261
   -38.1254 -38.1214 -38.1191 -38.1153 -38.1099 -38.1041 -38.0983 -38.0827
   -38.0700 -38.0685 -38.0641 -38.0571 -38.0550 -38.0544 -38.0516 -38.0385
   -38.0374 -38.0346 -38.0249 -38.0204 -38.0128 -38.0122 -38.0092 -38.0035
   -38.0016 -37.9918 -37.9610 -37.9569 -37.9542 -37.9522 -37.9477 -37.9397
   -37.9369 -37.9312 -37.9220 -37.9197 -37.9182 -37.9117 -37.9072 -37.9046
   -37.8790 -37.8742 -37.8640 -37.8609 -37.8580 -37.8494 -37.8462 -37.8417
   -37.8406 -37.8376 -37.8358 -37.8333 -37.8276 -37.8185 -37.8165 -37.8156
   -37.8130 -37.8097 -37.8074 -37.8000 -37.7779 -37.7763 -37.7738 -37.7655
   -37.7612 -37.7589 -37.7488 -37.7416 -37.7342 -37.7269 -37.7162 -37.7092
   -37.6322 -37.5956 -37.5815 -37.5736 -37.5672 -37.5561 -37.5497 -37.5452
   -12.2981 -11.8697 -11.8593 -11.7200 -11.7091 -11.5801 -11.4958 -11.4709
   -11.4067 -11.3975 -11.3423 -11.2155 -11.1747 -11.1637 -11.1047 -11.0984
   -11.0841 -11.0241 -10.8913 -10.8085  -9.3347  -9.1410  -9.1409  -9.1207
    -9.0457  -2.8508  -2.8353  -2.8055  -2.6963  -2.6316  -2.6066  -2.5911
    -2.5707  -2.5546  -2.5171  -2.4423  -2.4308  -2.3067  -2.2396  -2.2191
    -2.1982  -2.1868  -2.1683  -2.1069  -2.0664  -2.0544  -2.0038  -1.8999
    -1.8105  -1.6500  -1.6326  -1.5784  -1.4891  -1.4676  -1.4438  -1.3627
    -1.3518  -1.3290  -1.2855  -1.2652  -1.2533  -1.2421  -1.2065  -1.1771
    -1.1643  -1.1407  -1.1013  -1.0940  -1.0706  -1.0127  -0.9111  -0.8869
    -0.8518  -0.8211  -0.7740  -0.7433  -0.7307  -0.6988  -0.6925  -0.6691
    -0.6472  -0.6265  -0.5434  -0.5107  -0.4413  -0.3285  -0.2817  -0.2617
     0.7504   0.9220   0.9253   0.9270   1.1564   1.1573   1.1582   1.1825
     1.2145   1.2155   1.2216   1.2751   1.3710   1.6309   1.7053   1.7172
     1.8781   1.8935   1.9361   2.0944   2.0994   2.1323   2.1712   2.2426
     2.2699   2.3867   2.4003   2.4209   2.4282   2.5296   2.5372   2.5577
     2.5673   2.5736   2.6153   2.6524   2.6588   2.6698   2.7055   2.7479
     2.8282   2.8449   2.8547   2.9203   3.1061   3.1764   3.2509   3.2910
     3.3017   3.3214   3.3332   3.3731   3.4571   3.4647   3.4916   3.5014
     3.5098   3.5418   3.6356   3.6505   3.6845   3.6997   3.7149   3.7644
     3.7691   3.8056   3.8185   3.8238   3.8689   3.8789   3.8887   3.9254
     4.0694   4.0923   4.1019   4.1184   4.1377   4.1545   4.1704   4.2595
     4.2664   4.2745   4.3237   4.3336   4.3495   4.3689   4.3961   4.4022
     4.4232   4.4354   4.4854   4.5057   4.5222   4.5433   4.5548   4.5628
     4.5917   4.6409   4.6557   4.7251   4.7611   4.8191   4.8387   4.8438
     4.8894   4.9105   4.9288   4.9570   4.9760   5.0164   5.0315   5.0451
     5.0478   5.0646   5.1166   5.1339   5.1858   5.2200   5.2424   5.2557
     5.2701   5.2869   5.3867   5.4361   5.4560   5.4673   5.5488   5.5653
     5.5717   5.5881   5.5973   5.6110   5.6481   5.6561   5.6792   5.6978
     5.7130   5.7623   5.8018   5.8245   5.8354   5.8618   5.8700   5.8748
     5.8934   5.8963   5.9062   5.9208   5.9844   5.9903   5.9990   6.0031
     6.0259   6.0365   6.0597   6.0793   6.0843   6.1066   6.1161   6.1312
     6.1349   6.1447   6.1604   6.1729   6.1835   6.2032   6.2440   6.2969
     6.3103   6.3219   6.3528   6.3738   6.3769   6.3821   6.3947   6.4241
     6.4294   6.4465   6.4728   6.4871   6.5027   6.5182   6.5244   6.5530
     6.5606   6.6011   6.6412   6.6518   6.6760   6.7113   6.7490   6.7592
     6.7724   6.8171   6.8285   6.8358   6.8452   6.9166   6.9275   6.9292

          k = 0.2500 0.1443 0.0000 (108355 PWs)   bands (ev):

   -66.9082 -66.8854 -66.8765 -66.8742 -66.8613 -66.8575 -66.8563 -66.8519
   -66.8442 -66.8410 -66.8403 -66.8371 -66.8330 -66.8325 -66.8305 -66.8289
   -66.8231 -66.8200 -66.8168 -66.8095 -66.8087 -66.8039 -66.8029 -66.7965
   -66.6631 -66.6475 -66.6431 -66.6424 -66.6148 -66.6138 -66.6101 -66.6054
   -66.6040 -66.6019 -66.5985 -66.5975 -66.5666 -66.5408 -66.5311 -66.5267
   -66.5229 -66.5008 -66.4851 -66.4782 -66.4761 -66.4722 -66.4696 -66.4675
   -38.7013 -38.6811 -38.6724 -38.6646 -38.5765 -38.5752 -38.5719 -38.5460
   -38.5406 -38.5328 -38.5267 -38.5240 -38.5104 -38.4852 -38.4731 -38.4693
   -38.4581 -38.4550 -38.4538 -38.4320 -38.4280 -38.4162 -38.4118 -38.4057
   -38.3798 -38.3780 -38.3767 -38.3544 -38.3484 -38.3420 -38.3393 -38.3325
   -38.2929 -38.2896 -38.2838 -38.2728 -38.2661 -38.2625 -38.2481 -38.2440
   -38.2417 -38.2331 -38.2231 -38.2191 -38.2023 -38.2005 -38.1992 -38.1985
   -38.1928 -38.1899 -38.1880 -38.1799 -38.1771 -38.1758 -38.1694 -38.1667
   -38.1650 -38.1624 -38.1580 -38.1521 -38.1463 -38.1362 -38.1301 -38.1263
   -38.1257 -38.1233 -38.1190 -38.1175 -38.1109 -38.1037 -38.1002 -38.0792
   -38.0695 -38.0686 -38.0634 -38.0587 -38.0550 -38.0531 -38.0498 -38.0421
   -38.0361 -38.0345 -38.0268 -38.0223 -38.0158 -38.0117 -38.0079 -38.0039
   -37.9982 -37.9920 -37.9611 -37.9575 -37.9550 -37.9504 -37.9476 -37.9406
   -37.9373 -37.9313 -37.9222 -37.9201 -37.9176 -37.9099 -37.9080 -37.9047
   -37.8786 -37.8743 -37.8655 -37.8605 -37.8560 -37.8503 -37.8459 -37.8430
   -37.8413 -37.8377 -37.8361 -37.8319 -37.8264 -37.8197 -37.8170 -37.8148
   -37.8125 -37.8088 -37.8062 -37.8023 -37.7778 -37.7770 -37.7737 -37.7637
   -37.7623 -37.7589 -37.7485 -37.7419 -37.7343 -37.7270 -37.7160 -37.7091
   -37.6314 -37.5956 -37.5790 -37.5780 -37.5670 -37.5580 -37.5491 -37.5431
   -12.2979 -11.8689 -11.8592 -11.7205 -11.7097 -11.5750 -11.5015 -11.4797
   -11.4056 -11.4008 -11.3355 -11.1995 -11.1777 -11.1622 -11.1098 -11.0986
   -11.0845 -11.0266 -10.8928 -10.8086  -9.3347  -9.1418  -9.1404  -9.1205
    -9.0457  -2.8471  -2.8420  -2.8081  -2.6991  -2.6419  -2.6028  -2.5804
    -2.5718  -2.5622  -2.5001  -2.4444  -2.4246  -2.3173  -2.2357  -2.2156
    -2.1995  -2.1915  -2.1577  -2.1220  -2.0728  -2.0492  -2.0072  -1.8920
    -1.8127  -1.6453  -1.6234  -1.5754  -1.5013  -1.4685  -1.4298  -1.3758
    -1.3387  -1.3346  -1.2924  -1.2694  -1.2551  -1.2255  -1.2006  -1.1826
    -1.1664  -1.1358  -1.1179  -1.0999  -1.0790  -0.9776  -0.9193  -0.8838
    -0.8543  -0.8142  -0.7702  -0.7541  -0.7192  -0.7030  -0.6976  -0.6768
    -0.6503  -0.6292  -0.5712  -0.4721  -0.4500  -0.3345  -0.2764  -0.2640
     0.7504   0.9219   0.9260   0.9265   1.1562   1.1574   1.1584   1.1829
     1.2140   1.2158   1.2208   1.2756   1.3711   1.6269   1.7049   1.7217
     1.8771   1.8941   1.9387   2.0937   2.0999   2.1302   2.1697   2.2566
     2.2686   2.3838   2.3960   2.4077   2.4316   2.5230   2.5348   2.5579
     2.5668   2.5733   2.6201   2.6462   2.6617   2.6666   2.7136   2.7393
     2.8348   2.8407   2.8493   2.9338   3.1026   3.1736   3.2554   3.2983
     3.3124   3.3222   3.3336   3.3670   3.4611   3.4684   3.4921   3.5077
     3.5148   3.5323   3.6317   3.6583   3.6772   3.7037   3.7075   3.7576
     3.7833   3.8037   3.8158   3.8240   3.8566   3.8785   3.8867   3.9309
     4.0799   4.0917   4.1084   4.1145   4.1419   4.1573   4.1728   4.2420
     4.2654   4.2793   4.3174   4.3360   4.3507   4.3828   4.3925   4.4069
     4.4219   4.4370   4.4759   4.4907   4.5190   4.5424   4.5589   4.5632
     4.5974   4.6343   4.6543   4.7293   4.7692   4.8041   4.8244   4.8577
     4.8907   4.9157   4.9365   4.9624   4.9812   5.0220   5.0315   5.0505
     5.0607   5.0795   5.0916   5.1326   5.1569   5.2138   5.2395   5.2527
     5.2726   5.3023   5.3885   5.4434   5.4548   5.4708   5.5212   5.5630
     5.5707   5.5843   5.5952   5.6180   5.6495   5.6653   5.6913   5.6985
     5.7165   5.7864   5.8012   5.8247   5.8336   5.8505   5.8645   5.8811
     5.8947   5.9027   5.9146   5.9219   5.9706   5.9789   5.9961   6.0102
     6.0186   6.0437   6.0638   6.0695   6.0832   6.0990   6.1154   6.1235
     6.1353   6.1470   6.1672   6.1729   6.1844   6.2001   6.2478   6.3038
     6.3163   6.3225   6.3554   6.3688   6.3755   6.3822   6.3905   6.4219
     6.4359   6.4414   6.4540   6.4881   6.5040   6.5176   6.5437   6.5549
     6.5609   6.5839   6.6389   6.6580   6.6702   6.7207   6.7420   6.7591
     6.7697   6.8065   6.8240   6.8343   6.8541   6.8858   6.9196   6.9387

          k = 0.5000-0.2887 0.0000 (108310 PWs)   bands (ev):

   -66.9004 -66.8965 -66.8800 -66.8759 -66.8559 -66.8511 -66.8500 -66.8493
   -66.8458 -66.8442 -66.8431 -66.8371 -66.8363 -66.8352 -66.8336 -66.8295
   -66.8217 -66.8149 -66.8131 -66.8121 -66.8073 -66.8055 -66.8046 -66.7966
   -66.6564 -66.6560 -66.6441 -66.6425 -66.6122 -66.6085 -66.6082 -66.6070
   -66.6059 -66.6020 -66.6010 -66.5983 -66.5662 -66.5394 -66.5321 -66.5288
   -66.5234 -66.4996 -66.4820 -66.4785 -66.4767 -66.4728 -66.4702 -66.4679
   -38.6942 -38.6866 -38.6712 -38.6597 -38.5681 -38.5620 -38.5616 -38.5597
   -38.5483 -38.5401 -38.5365 -38.5347 -38.5055 -38.5015 -38.4752 -38.4670
   -38.4494 -38.4430 -38.4393 -38.4370 -38.4360 -38.4338 -38.4156 -38.4149
   -38.3669 -38.3619 -38.3607 -38.3563 -38.3551 -38.3539 -38.3358 -38.3330
   -38.3033 -38.3009 -38.2660 -38.2627 -38.2569 -38.2545 -38.2423 -38.2385
   -38.2364 -38.2320 -38.2294 -38.2271 -38.2131 -38.2122 -38.1975 -38.1971
   -38.1961 -38.1932 -38.1887 -38.1879 -38.1765 -38.1764 -38.1729 -38.1725
   -38.1664 -38.1617 -38.1580 -38.1534 -38.1526 -38.1474 -38.1277 -38.1221
   -38.1156 -38.1118 -38.1090 -38.1071 -38.0981 -38.0937 -38.0933 -38.0879
   -38.0849 -38.0770 -38.0747 -38.0665 -38.0533 -38.0483 -38.0447 -38.0436
   -38.0372 -38.0311 -38.0285 -38.0268 -38.0233 -38.0124 -38.0088 -38.0039
   -37.9983 -37.9954 -37.9584 -37.9574 -37.9567 -37.9474 -37.9436 -37.9400
   -37.9293 -37.9257 -37.9214 -37.9202 -37.9152 -37.9095 -37.9041 -37.8934
   -37.8889 -37.8741 -37.8712 -37.8650 -37.8532 -37.8518 -37.8437 -37.8425
   -37.8420 -37.8379 -37.8333 -37.8307 -37.8250 -37.8211 -37.8188 -37.8170
   -37.8124 -37.8107 -37.8087 -37.7998 -37.7765 -37.7745 -37.7701 -37.7667
   -37.7633 -37.7575 -37.7501 -37.7480 -37.7317 -37.7273 -37.7176 -37.7097
   -37.6319 -37.5910 -37.5792 -37.5666 -37.5652 -37.5625 -37.5602 -37.5446
   -12.1207 -12.1183 -11.7554 -11.7424 -11.7376 -11.7345 -11.4977 -11.4790
   -11.3323 -11.3223 -11.2462 -11.2203 -11.2151 -11.1748 -11.1222 -11.1180
   -10.9947 -10.9661 -10.9079 -10.9069  -9.3348  -9.1438  -9.1437  -9.0814
    -9.0811  -2.8096  -2.8060  -2.7236  -2.7030  -2.6785  -2.6486  -2.6323
    -2.6171  -2.5743  -2.5039  -2.4657  -2.3920  -2.3697  -2.2339  -2.2192
    -2.1703  -2.1479  -2.1148  -2.1075  -2.0063  -1.9521  -1.9374  -1.9096
    -1.8211  -1.7037  -1.6813  -1.6058  -1.5809  -1.5202  -1.4918  -1.4586
    -1.4248  -1.3210  -1.2964  -1.2873  -1.2742  -1.2658  -1.1840  -1.1406
    -1.1160  -1.1042  -1.0923  -1.0863  -0.9981  -0.9651  -0.9488  -0.8970
    -0.8758  -0.8357  -0.7852  -0.7488  -0.7018  -0.6937  -0.6854  -0.6590
    -0.6063  -0.5955  -0.5227  -0.4847  -0.4687  -0.4103  -0.3007  -0.2860
     0.8706   0.8739   0.9180   0.9200   1.1681   1.1705   1.1823   1.1835
     1.1985   1.1996   1.2419   1.2461   1.4777   1.4912   1.7242   1.7413
     1.9977   2.0113   2.0173   2.0498   2.1249   2.1366   2.1541   2.1686
     2.2992   2.3023   2.4682   2.4826   2.4932   2.4981   2.5285   2.5331
     2.5724   2.5829   2.5865   2.5942   2.6924   2.7148   2.8288   2.8375
     2.8559   2.8692   2.9207   2.9222   3.1129   3.1238   3.1289   3.1465
     3.1970   3.2011   3.3029   3.3216   3.4256   3.4272   3.4653   3.4896
     3.5262   3.5335   3.6103   3.6144   3.7011   3.7054   3.7617   3.7751
     3.8216   3.8264   3.8683   3.8854   3.9469   3.9933   4.0006   4.0264
     4.0419   4.0498   4.0538   4.0764   4.0802   4.1229   4.1933   4.2258
     4.2397   4.2585   4.3098   4.3445   4.3512   4.3947   4.4131   4.4255
     4.4491   4.4645   4.4730   4.4848   4.5047   4.5326   4.5446   4.5602
     4.5740   4.6014   4.6915   4.6960   4.7107   4.7417   4.7477   4.7639
     4.7780   4.8029   4.8942   4.9080   5.0362   5.0948   5.1016   5.1118
     5.1376   5.1484   5.1674   5.2054   5.2226   5.2415   5.2484   5.2659
     5.2800   5.2934   5.3169   5.3999   5.4386   5.4571   5.4603   5.4638
     5.5182   5.5313   5.5476   5.6058   5.6391   5.6440   5.6512   5.6687
     5.6763   5.7109   5.7264   5.7897   5.8211   5.8273   5.8402   5.8477
     5.8633   5.8666   5.8882   5.9289   5.9509   5.9621   5.9814   5.9895
     6.0000   6.0056   6.0220   6.0314   6.0920   6.1017   6.1069   6.1269
     6.1411   6.1588   6.1788   6.2464   6.2642   6.2698   6.2894   6.2944
     6.2985   6.3236   6.3298   6.3376   6.3503   6.4038   6.4494   6.4710
     6.4717   6.4814   6.4884   6.5054   6.5338   6.5411   6.5456   6.5498
     6.5688   6.6091   6.6327   6.6593   6.6913   6.7210   6.7279   6.7478
     6.7785   6.7930   6.8377   6.9192   6.9531   6.9629   6.9881   6.9958

          k =-0.5000-0.2887 0.0000 (108310 PWs)   bands (ev):

   -66.8993 -66.8981 -66.8786 -66.8762 -66.8565 -66.8529 -66.8502 -66.8481
   -66.8459 -66.8450 -66.8413 -66.8389 -66.8342 -66.8340 -66.8333 -66.8308
   -66.8212 -66.8168 -66.8140 -66.8107 -66.8096 -66.8046 -66.8006 -66.7987
   -66.6567 -66.6558 -66.6436 -66.6429 -66.6123 -66.6108 -66.6069 -66.6065
   -66.6037 -66.6034 -66.6005 -66.5989 -66.5660 -66.5399 -66.5341 -66.5267
   -66.5225 -66.5003 -66.4825 -66.4782 -66.4765 -66.4724 -66.4706 -66.4678
   -38.6918 -38.6899 -38.6683 -38.6617 -38.5668 -38.5658 -38.5632 -38.5601
   -38.5422 -38.5406 -38.5379 -38.5341 -38.5029 -38.5006 -38.4753 -38.4717
   -38.4451 -38.4436 -38.4417 -38.4381 -38.4371 -38.4328 -38.4159 -38.4135
   -38.3670 -38.3653 -38.3609 -38.3591 -38.3541 -38.3512 -38.3356 -38.3338
   -38.3002 -38.2982 -38.2654 -38.2613 -38.2598 -38.2555 -38.2435 -38.2398
   -38.2334 -38.2314 -38.2305 -38.2247 -38.2163 -38.2118 -38.1982 -38.1970
   -38.1947 -38.1941 -38.1878 -38.1875 -38.1788 -38.1756 -38.1742 -38.1724
   -38.1690 -38.1574 -38.1544 -38.1536 -38.1515 -38.1493 -38.1270 -38.1223
   -38.1190 -38.1130 -38.1097 -38.1060 -38.1024 -38.0958 -38.0918 -38.0866
   -38.0806 -38.0779 -38.0680 -38.0656 -38.0530 -38.0496 -38.0453 -38.0444
   -38.0389 -38.0350 -38.0264 -38.0250 -38.0225 -38.0174 -38.0141 -38.0041
   -37.9958 -37.9918 -37.9609 -37.9580 -37.9537 -37.9473 -37.9442 -37.9404
   -37.9296 -37.9275 -37.9196 -37.9177 -37.9174 -37.9105 -37.9020 -37.8925
   -37.8892 -37.8761 -37.8713 -37.8625 -37.8525 -37.8514 -37.8464 -37.8436
   -37.8416 -37.8369 -37.8341 -37.8291 -37.8244 -37.8206 -37.8191 -37.8180
   -37.8139 -37.8072 -37.8058 -37.8047 -37.7773 -37.7761 -37.7676 -37.7666
   -37.7606 -37.7599 -37.7504 -37.7482 -37.7312 -37.7286 -37.7166 -37.7095
   -37.6300 -37.5913 -37.5747 -37.5736 -37.5713 -37.5660 -37.5490 -37.5453
   -12.1202 -12.1180 -11.7549 -11.7458 -11.7357 -11.7330 -11.5026 -11.4858
   -11.3324 -11.3292 -11.2226 -11.2189 -11.2129 -11.1739 -11.1210 -11.1184
   -10.9975 -10.9741 -10.9094 -10.9062  -9.3347  -9.1447  -9.1432  -9.0818
    -9.0804  -2.8175  -2.8151  -2.7485  -2.6993  -2.6558  -2.6348  -2.6299
    -2.6269  -2.5459  -2.5025  -2.4690  -2.3965  -2.3854  -2.2339  -2.2173
    -2.1787  -2.1689  -2.1229  -2.0964  -1.9895  -1.9651  -1.9364  -1.8793
    -1.8071  -1.7064  -1.6959  -1.6153  -1.5569  -1.5442  -1.4906  -1.4290
    -1.4215  -1.3404  -1.3085  -1.3017  -1.2750  -1.2231  -1.1881  -1.1527
    -1.1170  -1.1089  -1.0994  -1.0848  -0.9776  -0.9753  -0.9181  -0.8999
    -0.8673  -0.8555  -0.7803  -0.7481  -0.7325  -0.7078  -0.6671  -0.6623
    -0.6114  -0.5865  -0.5316  -0.5069  -0.4408  -0.4149  -0.2996  -0.2856
     0.8710   0.8733   0.9187   0.9195   1.1686   1.1703   1.1818   1.1840
     1.1987   1.1999   1.2417   1.2448   1.4760   1.4902   1.7238   1.7450
     2.0009   2.0120   2.0239   2.0304   2.1230   2.1371   2.1634   2.1784
     2.3020   2.3110   2.4685   2.4777   2.4815   2.4872   2.5276   2.5391
     2.5736   2.5782   2.5832   2.5852   2.6843   2.6935   2.8290   2.8443
     2.8573   2.8608   2.9245   2.9271   3.1240   3.1319   3.1412   3.1485
     3.1999   3.2061   3.3026   3.3218   3.4227   3.4263   3.4750   3.5071
     3.5256   3.5299   3.6115   3.6215   3.6965   3.7132   3.7443   3.7661
     3.8209   3.8279   3.8800   3.8884   3.9279   3.9878   3.9956   4.0035
     4.0372   4.0481   4.0655   4.0858   4.1030   4.1199   4.2095   4.2290
     4.2371   4.2502   4.3176   4.3511   4.3811   4.4032   4.4183   4.4224
     4.4356   4.4584   4.4660   4.4853   4.4996   4.5307   4.5389   4.5623
     4.5653   4.5901   4.7005   4.7058   4.7205   4.7324   4.7478   4.7584
     4.7724   4.7948   4.8998   4.9390   5.0441   5.0903   5.0953   5.1086
     5.1261   5.1513   5.1590   5.1838   5.2112   5.2274   5.2439   5.2496
     5.2772   5.2981   5.3433   5.4284   5.4434   5.4487   5.4578   5.4666
     5.5050   5.5239   5.5493   5.6196   5.6334   5.6484   5.6631   5.6736
     5.6831   5.7057   5.7145   5.8081   5.8216   5.8292   5.8449   5.8536
     5.8637   5.8900   5.8955   5.9221   5.9506   5.9587   5.9768   5.9855
     5.9982   6.0087   6.0241   6.0488   6.0914   6.0975   6.1098   6.1238
     6.1402   6.1618   6.1741   6.2204   6.2606   6.2769   6.2796   6.2903
     6.2991   6.3036   6.3308   6.3365   6.3423   6.3905   6.4514   6.4557
     6.4725   6.4904   6.5006   6.5233   6.5336   6.5372   6.5405   6.5452
     6.5593   6.6063   6.6265   6.6427   6.6984   6.7232   6.7312   6.7542
     6.7668   6.7801   6.8423   6.8583   6.9527   6.9589   6.9805   6.9882

          k =-0.2500 0.4330 0.0000 (108308 PWs)   bands (ev):

   -66.9019 -66.8907 -66.8890 -66.8676 -66.8598 -66.8547 -66.8499 -66.8481
   -66.8446 -66.8428 -66.8409 -66.8396 -66.8374 -66.8350 -66.8337 -66.8266
   -66.8231 -66.8159 -66.8140 -66.8114 -66.8085 -66.8046 -66.8029 -66.7973
   -66.6584 -66.6508 -66.6500 -66.6395 -66.6132 -66.6095 -66.6081 -66.6064
   -66.6038 -66.6026 -66.6010 -66.5987 -66.5661 -66.5389 -66.5347 -66.5266
   -66.5231 -66.4999 -66.4827 -66.4790 -66.4752 -66.4726 -66.4704 -66.4682
   -38.6944 -38.6822 -38.6781 -38.6569 -38.5692 -38.5657 -38.5618 -38.5549
   -38.5453 -38.5422 -38.5365 -38.5354 -38.5054 -38.4930 -38.4903 -38.4558
   -38.4521 -38.4455 -38.4429 -38.4377 -38.4305 -38.4256 -38.4211 -38.4186
   -38.3651 -38.3640 -38.3638 -38.3569 -38.3495 -38.3423 -38.3403 -38.3374
   -38.3294 -38.2698 -38.2650 -38.2634 -38.2618 -38.2509 -38.2503 -38.2403
   -38.2357 -38.2347 -38.2275 -38.2255 -38.2089 -38.2033 -38.2020 -38.1988
   -38.1975 -38.1935 -38.1911 -38.1882 -38.1790 -38.1784 -38.1766 -38.1703
   -38.1650 -38.1631 -38.1603 -38.1508 -38.1457 -38.1432 -38.1384 -38.1214
   -38.1145 -38.1107 -38.1088 -38.1071 -38.1010 -38.0959 -38.0930 -38.0877
   -38.0807 -38.0767 -38.0722 -38.0644 -38.0553 -38.0453 -38.0445 -38.0394
   -38.0386 -38.0352 -38.0334 -38.0272 -38.0240 -38.0143 -38.0096 -38.0042
   -37.9987 -37.9918 -37.9620 -37.9581 -37.9544 -37.9484 -37.9460 -37.9389
   -37.9324 -37.9246 -37.9222 -37.9140 -37.9118 -37.9057 -37.9043 -37.9011
   -37.8874 -37.8732 -37.8656 -37.8626 -37.8582 -37.8514 -37.8495 -37.8450
   -37.8396 -37.8357 -37.8334 -37.8319 -37.8248 -37.8224 -37.8198 -37.8154
   -37.8122 -37.8085 -37.8072 -37.8009 -37.7777 -37.7758 -37.7706 -37.7660
   -37.7632 -37.7545 -37.7538 -37.7459 -37.7319 -37.7276 -37.7170 -37.7095
   -37.6311 -37.5897 -37.5824 -37.5691 -37.5679 -37.5610 -37.5544 -37.5456
   -12.1766 -11.9630 -11.9607 -11.7758 -11.6365 -11.6289 -11.5948 -11.4190
   -11.3521 -11.2979 -11.2737 -11.2645 -11.2105 -11.2001 -11.0879 -11.0529
   -10.9957 -10.9927 -10.9524 -10.8768  -9.3347  -9.1593  -9.1108  -9.1094
    -9.0706  -2.8652  -2.7779  -2.7499  -2.7369  -2.6292  -2.6184  -2.6105
    -2.5564  -2.5351  -2.4813  -2.4677  -2.4473  -2.4285  -2.3827  -2.2251
    -2.0981  -2.0802  -2.0649  -2.0369  -1.9980  -1.9874  -1.9588  -1.9344
    -1.8735  -1.7975  -1.6598  -1.6187  -1.5464  -1.5319  -1.4694  -1.4161
    -1.3825  -1.3194  -1.3044  -1.2708  -1.2584  -1.2333  -1.2267  -1.2130
    -1.1592  -1.1186  -1.0421  -1.0340  -0.9959  -0.9878  -0.9531  -0.9155
    -0.8273  -0.8033  -0.7903  -0.7455  -0.7257  -0.7007  -0.6889  -0.6793
    -0.6444  -0.5752  -0.5648  -0.5043  -0.4104  -0.3839  -0.3557  -0.2477
     0.8446   0.9003   0.9010   0.9382   1.1368   1.1398   1.1844   1.1875
     1.1884   1.2467   1.2517   1.2537   1.4480   1.5781   1.6008   1.7909
     1.9427   2.0465   2.0578   2.0847   2.1489   2.1578   2.1643   2.1785
     2.2587   2.3296   2.3414   2.4040   2.4751   2.4829   2.5112   2.5194
     2.5591   2.6112   2.6744   2.6828   2.6873   2.7691   2.7817   2.8248
     2.8850   2.9069   2.9219   2.9321   3.0084   3.0174   3.0329   3.1155
     3.2610   3.3377   3.3865   3.3995   3.4299   3.4430   3.4596   3.5237
     3.5343   3.5464   3.5594   3.6378   3.6426   3.6591   3.7311   3.7912
     3.8015   3.8224   3.8412   3.8655   3.8956   3.9347   3.9542   3.9739
     4.0880   4.1126   4.1382   4.1430   4.1623   4.1721   4.1853   4.2154
     4.2436   4.2765   4.3076   4.3235   4.3416   4.3722   4.3912   4.3958
     4.4208   4.4350   4.4689   4.4787   4.5156   4.5239   4.5581   4.5635
     4.6382   4.6472   4.6710   4.6787   4.6892   4.7017   4.7498   4.7604
     4.7916   4.9286   4.9466   4.9563   4.9800   4.9882   5.0169   5.0302
     5.0669   5.1109   5.1274   5.1871   5.2154   5.2443   5.2676   5.2901
     5.3158   5.3481   5.3853   5.4061   5.4318   5.4449   5.5003   5.5180
     5.5295   5.5359   5.5552   5.5777   5.6079   5.6222   5.6467   5.6809
     5.6977   5.7318   5.7804   5.8178   5.8209   5.8360   5.8453   5.8619
     5.8749   5.8826   5.8984   5.9113   5.9317   5.9588   5.9667   5.9810
     5.9886   6.0061   6.0191   6.0295   6.0544   6.0816   6.0918   6.1351
     6.1507   6.1717   6.1742   6.1826   6.1966   6.2300   6.2771   6.2901
     6.3022   6.3145   6.3354   6.3642   6.3742   6.3911   6.4031   6.4283
     6.4430   6.4612   6.4801   6.5368   6.5608   6.5686   6.5975   6.6130
     6.6203   6.6482   6.6654   6.6807   6.7035   6.7344   6.7517   6.7627
     6.7777   6.8244   6.8303   6.8424   6.8704   6.9097   6.9644   6.9928

          k = 0.5000-0.0000 0.0000 (108308 PWs)   bands (ev):

   -66.9019 -66.8909 -66.8889 -66.8676 -66.8597 -66.8546 -66.8500 -66.8481
   -66.8447 -66.8426 -66.8409 -66.8395 -66.8376 -66.8354 -66.8332 -66.8266
   -66.8231 -66.8160 -66.8139 -66.8115 -66.8082 -66.8047 -66.8030 -66.7973
   -66.6584 -66.6510 -66.6499 -66.6396 -66.6129 -66.6094 -66.6085 -66.6064
   -66.6036 -66.6026 -66.6010 -66.5987 -66.5661 -66.5391 -66.5345 -66.5264
   -66.5234 -66.5000 -66.4821 -66.4787 -66.4764 -66.4727 -66.4701 -66.4680
   -38.6943 -38.6829 -38.6775 -38.6570 -38.5688 -38.5659 -38.5620 -38.5551
   -38.5456 -38.5419 -38.5363 -38.5354 -38.5052 -38.4933 -38.4901 -38.4555
   -38.4523 -38.4458 -38.4426 -38.4381 -38.4304 -38.4250 -38.4218 -38.4183
   -38.3650 -38.3642 -38.3638 -38.3571 -38.3494 -38.3421 -38.3402 -38.3374
   -38.3290 -38.2698 -38.2650 -38.2636 -38.2619 -38.2510 -38.2502 -38.2402
   -38.2363 -38.2345 -38.2269 -38.2250 -38.2095 -38.2034 -38.2019 -38.1985
   -38.1976 -38.1934 -38.1912 -38.1883 -38.1790 -38.1785 -38.1769 -38.1702
   -38.1651 -38.1630 -38.1601 -38.1506 -38.1455 -38.1438 -38.1385 -38.1215
   -38.1144 -38.1103 -38.1087 -38.1072 -38.1010 -38.0954 -38.0927 -38.0886
   -38.0804 -38.0769 -38.0707 -38.0674 -38.0544 -38.0458 -38.0441 -38.0395
   -38.0380 -38.0352 -38.0339 -38.0274 -38.0234 -38.0133 -38.0111 -38.0036
   -37.9976 -37.9926 -37.9618 -37.9583 -37.9546 -37.9479 -37.9469 -37.9381
   -37.9328 -37.9246 -37.9213 -37.9156 -37.9112 -37.9061 -37.9036 -37.9013
   -37.8877 -37.8730 -37.8655 -37.8630 -37.8582 -37.8516 -37.8497 -37.8441
   -37.8393 -37.8363 -37.8331 -37.8319 -37.8251 -37.8225 -37.8197 -37.8153
   -37.8125 -37.8091 -37.8066 -37.8008 -37.7776 -37.7758 -37.7704 -37.7664
   -37.7631 -37.7547 -37.7536 -37.7459 -37.7317 -37.7279 -37.7170 -37.7095
   -37.6311 -37.5897 -37.5794 -37.5719 -37.5694 -37.5624 -37.5518 -37.5455
   -12.1766 -11.9656 -11.9581 -11.7759 -11.6383 -11.6264 -11.5950 -11.4201
   -11.3521 -11.2965 -11.2750 -11.2641 -11.2106 -11.1996 -11.0920 -11.0480
   -10.9967 -10.9916 -10.9536 -10.8768  -9.3347  -9.1593  -9.1115  -9.1086
    -9.0706  -2.8594  -2.7767  -2.7600  -2.7333  -2.6526  -2.6191  -2.5863
    -2.5535  -2.5246  -2.4861  -2.4652  -2.4487  -2.4281  -2.3984  -2.2175
    -2.1126  -2.0803  -2.0690  -2.0334  -2.0031  -1.9795  -1.9422  -1.9284
    -1.8995  -1.7788  -1.6546  -1.6247  -1.5465  -1.5362  -1.4653  -1.4146
    -1.3839  -1.3218  -1.3045  -1.2733  -1.2591  -1.2333  -1.2262  -1.2138
    -1.1588  -1.1189  -1.0406  -1.0346  -0.9993  -0.9851  -0.9528  -0.9148
    -0.8279  -0.8024  -0.7881  -0.7442  -0.7284  -0.6996  -0.6873  -0.6811
    -0.6458  -0.5789  -0.5595  -0.5097  -0.4083  -0.3799  -0.3583  -0.2474
     0.8445   0.9000   0.9013   0.9382   1.1370   1.1394   1.1842   1.1880
     1.1884   1.2467   1.2515   1.2538   1.4475   1.5784   1.6006   1.7917
     1.9429   2.0462   2.0572   2.0856   2.1487   2.1581   2.1653   2.1768
     2.2580   2.3295   2.3424   2.4045   2.4764   2.4825   2.5094   2.5204
     2.5581   2.6116   2.6743   2.6829   2.6866   2.7695   2.7783   2.8242
     2.8830   2.9104   2.9215   2.9337   3.0091   3.0175   3.0323   3.1165
     3.2606   3.3367   3.3850   3.4021   3.4286   3.4449   3.4577   3.5234
     3.5371   3.5444   3.5599   3.6382   3.6435   3.6584   3.7285   3.7940
     3.8017   3.8142   3.8490   3.8614   3.8993   3.9337   3.9581   3.9723
     4.0902   4.1250   4.1370   4.1485   4.1563   4.1714   4.1902   4.2159
     4.2395   4.2595   4.3034   4.3279   4.3346   4.3735   4.3884   4.3954
     4.4207   4.4483   4.4665   4.4871   4.5088   4.5250   4.5591   4.5617
     4.6383   4.6462   4.6686   4.6730   4.6922   4.7043   4.7501   4.7604
     4.7912   4.9264   4.9464   4.9565   4.9835   4.9888   5.0123   5.0307
     5.0725   5.1103   5.1262   5.1880   5.2138   5.2510   5.2700   5.2899
     5.3118   5.3493   5.3885   5.4050   5.4281   5.4459   5.4997   5.5177
     5.5307   5.5359   5.5545   5.5782   5.6034   5.6248   5.6478   5.6803
     5.6987   5.7314   5.7823   5.8190   5.8220   5.8374   5.8482   5.8607
     5.8742   5.8818   5.8980   5.9112   5.9324   5.9577   5.9666   5.9801
     5.9841   6.0059   6.0198   6.0308   6.0533   6.0845   6.0950   6.1273
     6.1527   6.1721   6.1736   6.1818   6.1970   6.2296   6.2770   6.2860
     6.3036   6.3152   6.3362   6.3671   6.3738   6.3901   6.4052   6.4291
     6.4406   6.4612   6.4801   6.5373   6.5591   6.5665   6.6005   6.6121
     6.6196   6.6457   6.6658   6.6821   6.7039   6.7335   6.7537   6.7607
     6.7791   6.8213   6.8292   6.8443   6.8702   6.9094   6.9650   6.9911

     the Fermi energy is     5.2979 ev

!    total energy              =  -12616.46470468 Ry
     total all-electron energy =   -103594.968511 Ry
     estimated scf accuracy    <          9.3E-09 Ry
     smearing contrib. (-TS)   =       0.01063492 Ry
     internal energy E=F+TS    =  -12616.47533960 Ry

     The total energy is F=E-TS. E is the sum of the following terms:
     one-electron contribution =  -67568.62130558 Ry
     hartree contribution      =   33900.54752029 Ry
     xc contribution           =   -1216.13409662 Ry
     ewald contribution        =   26030.09842087 Ry
     DFT-D3 Dispersion         =      -1.08752736 Ry
     one-center paw contrib.   =   -3761.27835120 Ry

     convergence has been achieved in  32 iterations

     negative rho (up, down):  2.089E-04 0.000E+00

     Forces acting on atoms (cartesian axes, Ry/au):

     atom    1 type  1   force =    -0.00040962    0.00008242    0.00009011
     atom    2 type  1   force =     0.00038420   -0.00021933    0.00013657
     atom    3 type  1   force =    -0.00004217   -0.00004646   -0.00008569
     atom    4 type  1   force =    -0.00003041    0.00008457    0.00024160
     atom    5 type  1   force =     0.00016566    0.00019970    0.00018432
     atom    6 type  1   force =     0.00001431    0.00031800    0.00021214
     atom    7 type  2   force =    -0.00006627   -0.00001241    0.00016153
     atom    8 type  2   force =     0.00013898    0.00018639   -0.00035950
     atom    9 type  2   force =     0.00009207    0.00013693   -0.00012367
     atom   10 type  1   force =    -0.00001566    0.00024706   -0.00012060
     atom   11 type  1   force =     0.00053486    0.00031613   -0.00014968
     atom   12 type  1   force =    -0.00041795   -0.00030541   -0.00084251
     atom   13 type  1   force =    -0.00007435    0.00004347   -0.00001176
     atom   14 type  1   force =    -0.00011879   -0.00060604    0.00000531
     atom   15 type  1   force =    -0.00048288   -0.00044870   -0.00012839
     atom   16 type  2   force =    -0.00005845   -0.00020040    0.00018803
     atom   17 type  2   force =    -0.00011181   -0.00013847    0.00036592
     atom   18 type  2   force =    -0.00026042    0.00000156    0.00032950
     atom   19 type  1   force =     0.00029151   -0.00013675    0.00034837
     atom   20 type  1   force =     0.00021516    0.00031730    0.00010870
     atom   21 type  1   force =     0.00006511    0.00006738    0.00022056
     atom   22 type  1   force =    -0.00012762   -0.00013685    0.00034856
     atom   23 type  1   force =     0.00012133   -0.00003408    0.00021480
     atom   24 type  1   force =     0.00034283   -0.00014176   -0.00005692
     atom   25 type  2   force =    -0.00016592   -0.00022694    0.00034060
     atom   26 type  2   force =    -0.00016681   -0.00006456   -0.00023278
     atom   27 type  2   force =    -0.00020503    0.00005451   -0.00045591
     atom   28 type  1   force =     0.00002982    0.00053326   -0.00004047
     atom   29 type  1   force =    -0.00003929   -0.00020167   -0.00018595
     atom   30 type  1   force =    -0.00000578    0.00026841   -0.00027750
     atom   31 type  1   force =    -0.00016526    0.00054511    0.00004870
     atom   32 type  1   force =    -0.00042570   -0.00103333    0.00003103
     atom   33 type  1   force =     0.00008204   -0.00044100   -0.00047188
     atom   34 type  2   force =    -0.00004690    0.00004556    0.00026827
     atom   35 type  2   force =    -0.00037088    0.00000725    0.00035832
     atom   36 type  2   force =    -0.00017327   -0.00014614    0.00005877
     atom   37 type  1   force =     0.00034506    0.00020681   -0.00015010
     atom   38 type  1   force =     0.00011316    0.00014977    0.00020896
     atom   39 type  1   force =     0.00010377    0.00011452    0.00009266
     atom   40 type  1   force =    -0.00002151   -0.00020213    0.00019324
     atom   41 type  1   force =    -0.00030437    0.00022977   -0.00035449
     atom   42 type  1   force =    -0.00025105   -0.00003133    0.00025367
     atom   43 type  2   force =    -0.00016646   -0.00035782    0.00019677
     atom   44 type  2   force =     0.00006079   -0.00022835   -0.00046438
     atom   45 type  2   force =     0.00007749   -0.00026911   -0.00054076
     atom   46 type  1   force =    -0.00007248    0.00030285   -0.00067290
     atom   47 type  1   force =     0.00064153    0.00013790    0.00028137
     atom   48 type  1   force =     0.00003600    0.00056841   -0.00012244
     atom   49 type  1   force =     0.00008570    0.00022934    0.00024601
     atom   50 type  1   force =    -0.00076331    0.00004050   -0.00040041
     atom   51 type  1   force =    -0.00040685   -0.00091703    0.00018516
     atom   52 type  2   force =     0.00027694    0.00048564    0.00050177
     atom   53 type  2   force =    -0.00014466   -0.00045848    0.00015284
     atom   54 type  2   force =     0.00029893   -0.00010075    0.00032377
     atom   55 type  1   force =    -0.00014696    0.00002364    0.00038394
     atom   56 type  1   force =    -0.00003025   -0.00010949   -0.00000908
     atom   57 type  1   force =    -0.00000613   -0.00011446   -0.00066646
     atom   58 type  1   force =     0.00004040    0.00017217    0.00036388
     atom   59 type  1   force =    -0.00015294    0.00090774    0.00008751
     atom   60 type  1   force =     0.00064292    0.00041212    0.00015200
     atom   61 type  2   force =     0.00005939    0.00034236    0.00093519
     atom   62 type  2   force =     0.00043785    0.00035975   -0.00017005
     atom   63 type  2   force =     0.00001984    0.00053132   -0.00002549
     atom   64 type  1   force =    -0.00020258    0.00005307   -0.00027523
     atom   65 type  1   force =     0.00061494    0.00023914    0.00002121
     atom   66 type  1   force =     0.00013442   -0.00032646   -0.00017272
     atom   67 type  1   force =     0.00001883   -0.00039700   -0.00041869
     atom   68 type  1   force =    -0.00117337    0.00032324   -0.00097279
     atom   69 type  1   force =     0.00043645   -0.00059376   -0.00091485
     atom   70 type  2   force =     0.00021056    0.00018886    0.00016817
     atom   71 type  2   force =     0.00003670   -0.00009242   -0.00004107
     atom   72 type  2   force =     0.00028636   -0.00020561    0.00010951
     atom   73 type  3   force =    -0.00016188   -0.00039575    0.00001724
     atom   74 type  4   force =    -0.00030360   -0.00034505    0.00051399
     atom   75 type  4   force =     0.00057794    0.00015501    0.00114258
     atom   76 type  4   force =     0.00090691   -0.00055378   -0.00100447
     atom   77 type  4   force =    -0.00065114    0.00061014    0.00012644

     Total force =     0.005306     Total SCF correction =     0.000568
     SCF correction compared to forces is large: reduce conv_thr to get better values
     Energy error            =      7.0E-05 Ry
     Gradient error          =      1.2E-03 Ry/Bohr

     number of scf cycles    =  51
     number of bfgs steps    =  50

     energy             old  =  -12616.4646349550 Ry
     energy             new  =  -12616.4647046815 Ry

     CASE: energy            _new < energy            _old

     new trust radius        =       0.0194682915 bohr
     new conv_thr            =            1.0E-10 Ry


ATOMIC_POSITIONS (angstrom)
Cr              -1.5945532231        2.7618593278        8.2386414679
Cr               3.1900617218       -0.0027221825        8.2374313631
Cr               0.7827546516        1.3559617437        8.2345644387
Cr               1.6305611586        2.8211080288        6.1053069146
Cr              -0.7446236623        1.2904830976        6.1050780700
Cr               1.4935294418       -0.0019843566        6.1056154746
N                0.0017256260       -0.0018116074        5.0627718446
N                2.3782072534        1.3706248698        7.0923487878
N               -0.0000641228        2.7443516020        7.0916803988
Cr              -1.6529509720        2.8532110009       12.5086539912
Cr               3.2955571465       -0.0003934466       12.5106946955
Cr               0.7137921725        1.2153133822       12.4713630757
Cr               1.5993867777        2.7698263921       10.4353777384
Cr              -0.7866423046        1.3540194860       10.4219459979
Cr               1.5638039896       -0.0097311068       10.4192764073
N                0.0038083551        0.0064987464        9.3105368935
N                2.3735438432        1.3725943734       11.5337533963
N                0.0056338564        2.7386929392       11.5525020465
Cr              -3.9715233290        6.8816170740        8.2330181107
Cr               0.8226109925        4.1142851830        8.2329301415
Cr              -1.5939090348        5.4601030842        8.2332832776
Cr              -0.7431982336        6.9372009371        6.1052520332
Cr              -3.1217792713        5.4042629978        6.1107249739
Cr              -0.8850326811        4.1151646546        6.1040129922
N               -2.3769441817        4.1157209537        5.0622803766
N                0.0035051800        5.4849153504        7.0919506230
N               -2.3718684356        6.8567731001        7.0932695258
Cr              -4.0117997015        6.9632980968       12.5076563137
Cr               0.8936700433        4.0955564852       12.5487581586
Cr              -1.6528967831        5.3803577518       12.5279078977
Cr              -0.7706689646        6.8677219085       10.4306931283
Cr              -3.1321425861        5.4705110140       10.4216573803
Cr              -0.8048755076        4.1217748000       10.4466252461
N               -2.3653469432        4.1105681377        9.3234748225
N                0.0181390664        5.4794838932       11.5867386493
N               -2.3639506596        6.8567578537       11.5480861569
Cr               3.1543095231        2.7674198596        8.2345925881
Cr               7.9462884350        0.0009261584        8.2338183592
Cr               5.5292532237        1.3488472379        8.2315260650
Cr               6.3810900739        2.8243229754        6.1062704827
Cr               4.0089381626        1.2909396064        6.1064480145
Cr               6.2444731011       -0.0017857343        6.1104071353
N                4.7548628451       -0.0001217836        5.0637130739
N                7.1278311216        1.3740403343        7.0927782692
N                4.7509377758        2.7450450351        7.0946994815
Cr               3.0919658452        2.8092082894       12.5584687821
[...]

          k = 0.5000-0.0000 0.0000 (108308 PWs)   bands (ev):

   -66.9027 -66.8917 -66.8898 -66.8685 -66.8607 -66.8553 -66.8507 -66.8491
   -66.8455 -66.8434 -66.8416 -66.8400 -66.8376 -66.8362 -66.8336 -66.8273
   -66.8240 -66.8166 -66.8144 -66.8119 -66.8084 -66.8054 -66.8028 -66.7972
   -66.6586 -66.6508 -66.6504 -66.6398 -66.6132 -66.6095 -66.6085 -66.6068
   -66.6037 -66.6027 -66.6023 -66.5993 -66.5660 -66.5389 -66.5338 -66.5262
   -66.5212 -66.4969 -66.4819 -66.4775 -66.4754 -66.4714 -66.4705 -66.4661
   -38.6956 -38.6844 -38.6791 -38.6587 -38.5705 -38.5668 -38.5638 -38.5564
   -38.5471 -38.5434 -38.5376 -38.5369 -38.5061 -38.4940 -38.4905 -38.4560
   -38.4530 -38.4468 -38.4432 -38.4387 -38.4310 -38.4257 -38.4224 -38.4191
   -38.3661 -38.3649 -38.3645 -38.3578 -38.3505 -38.3429 -38.3410 -38.3381
   -38.3299 -38.2708 -38.2658 -38.2640 -38.2616 -38.2517 -38.2503 -38.2406
   -38.2366 -38.2345 -38.2270 -38.2252 -38.2099 -38.2039 -38.2024 -38.1991
   -38.1984 -38.1943 -38.1917 -38.1889 -38.1796 -38.1790 -38.1766 -38.1709
   -38.1653 -38.1630 -38.1600 -38.1510 -38.1456 -38.1439 -38.1385 -38.1219
   -38.1148 -38.1109 -38.1091 -38.1074 -38.1014 -38.0959 -38.0935 -38.0885
   -38.0815 -38.0771 -38.0713 -38.0677 -38.0554 -38.0462 -38.0447 -38.0403
   -38.0386 -38.0355 -38.0343 -38.0276 -38.0239 -38.0126 -38.0109 -38.0049
   -37.9975 -37.9922 -37.9620 -37.9581 -37.9545 -37.9480 -37.9470 -37.9373
   -37.9331 -37.9251 -37.9215 -37.9151 -37.9105 -37.9062 -37.9025 -37.9013
   -37.8879 -37.8728 -37.8653 -37.8631 -37.8580 -37.8513 -37.8496 -37.8440
   -37.8380 -37.8358 -37.8330 -37.8320 -37.8247 -37.8223 -37.8195 -37.8150
   -37.8112 -37.8086 -37.8056 -37.8008 -37.7778 -37.7759 -37.7709 -37.7662
   -37.7637 -37.7550 -37.7541 -37.7463 -37.7316 -37.7286 -37.7169 -37.7093
   -37.6294 -37.5895 -37.5785 -37.5696 -37.5671 -37.5608 -37.5508 -37.5436
   -12.1782 -11.9677 -11.9592 -11.7764 -11.6392 -11.6264 -11.5977 -11.4189
   -11.3538 -11.2957 -11.2766 -11.2657 -11.2125 -11.2015 -11.0908 -11.0477
   -10.9976 -10.9949 -10.9529 -10.8790  -9.3513  -9.1612  -9.1120  -9.1117
    -9.0723  -2.8595  -2.7880  -2.7611  -2.7356  -2.6658  -2.6219  -2.5929
    -2.5596  -2.5300  -2.4880  -2.4692  -2.4503  -2.4335  -2.4011  -2.2194
    -2.1138  -2.0819  -2.0701  -2.0347  -2.0062  -1.9811  -1.9447  -1.9303
    -1.9023  -1.7818  -1.6561  -1.6264  -1.5471  -1.5379  -1.4667  -1.4148
    -1.3860  -1.3225  -1.3048  -1.2755  -1.2596  -1.2350  -1.2274  -1.2150
    -1.1579  -1.1148  -1.0413  -1.0348  -0.9998  -0.9854  -0.9526  -0.9154
    -0.8288  -0.8046  -0.7872  -0.7465  -0.7290  -0.6998  -0.6877  -0.6810
    -0.6473  -0.5790  -0.5598  -0.5118  -0.4127  -0.3823  -0.3558  -0.2493
     0.8422   0.8977   0.8992   0.9364   1.1343   1.1371   1.1813   1.1853
     1.1866   1.2435   1.2501   1.2513   1.4461   1.5757   1.6001   1.7903
     1.9399   2.0445   2.0560   2.0851   2.1451   2.1580   2.1633   2.1754
     2.2565   2.3270   2.3403   2.4002   2.4733   2.4782   2.5064   2.5169
     2.5553   2.6085   2.6733   2.6812   2.6848   2.7681   2.7772   2.8229
     2.8831   2.9104   2.9206   2.9344   3.0069   3.0153   3.0306   3.1160
     3.2586   3.3331   3.3821   3.4007   3.4276   3.4418   3.4550   3.5211
     3.5352   3.5421   3.5567   3.6383   3.6422   3.6575   3.7255   3.7913
     3.7995   3.8107   3.8440   3.8611   3.8966   3.9326   3.9574   3.9713
     4.0874   4.1217   4.1351   4.1474   4.1554   4.1714   4.1887   4.2168
     4.2359   4.2581   4.3025   4.3272   4.3328   4.3730   4.3880   4.3943
     4.4218   4.4468   4.4649   4.4860   4.5080   4.5230   4.5583   4.5638
     4.6371   4.6453   4.6673   4.6725   4.6916   4.7051   4.7507   4.7597
     4.7904   4.9267   4.9460   4.9562   4.9844   4.9886   5.0110   5.0283
     5.0717   5.1085   5.1254   5.1878   5.2131   5.2506   5.2687   5.2895
     5.3107   5.3490   5.3875   5.4050   5.4283   5.4448   5.5007   5.5188
     5.5314   5.5360   5.5579   5.5792   5.6037   5.6250   5.6483   5.6794
     5.6994   5.7328   5.7834   5.8187   5.8216   5.8375   5.8482   5.8616
     5.8750   5.8820   5.8974   5.9110   5.9341   5.9582   5.9671   5.9804
     5.9832   6.0055   6.0216   6.0318   6.0535   6.0832   6.0959   6.1291
     6.1521   6.1739   6.1747   6.1825   6.1977   6.2302   6.2794   6.2874
     6.3043   6.3173   6.3376   6.3680   6.3756   6.3915   6.4070   6.4304
     6.4408   6.4617   6.4818   6.5387   6.5587   6.5674   6.6017   6.6129
     6.6207   6.6465   6.6654   6.6840   6.7055   6.7343   6.7540   6.7605
     6.7794   6.8226   6.8317   6.8462   6.8723   6.9103   6.9668   6.9941

     the Fermi energy is     5.2976 ev

!    total energy              =  -12616.46489474 Ry
     total all-electron energy =   -103594.968701 Ry
     estimated scf accuracy    <          5.1E-11 Ry
     smearing contrib. (-TS)   =       0.01077784 Ry
     internal energy E=F+TS    =  -12616.47567258 Ry

     The total energy is F=E-TS. E is the sum of the following terms:
     one-electron contribution =  -67621.58019807 Ry
     hartree contribution      =   33927.01637385 Ry
     xc contribution           =   -1216.15791486 Ry
     ewald contribution        =   26056.61408243 Ry
     DFT-D3 Dispersion         =      -1.08814325 Ry
     one-center paw contrib.   =   -3761.27987268 Ry

     convergence has been achieved in  36 iterations

     negative rho (up, down):  2.094E-04 0.000E+00

     Forces acting on atoms (cartesian axes, Ry/au):

     atom    1 type  1   force =    -0.00014011   -0.00006362   -0.00015639
     atom    2 type  1   force =    -0.00016969   -0.00008812   -0.00019338
     atom    3 type  1   force =    -0.00005147   -0.00001346   -0.00005261
     atom    4 type  1   force =    -0.00002164   -0.00013046   -0.00002766
     atom    5 type  1   force =    -0.00004712    0.00002952    0.00018101
     atom    6 type  1   force =     0.00003591    0.00004750    0.00017497
     atom    7 type  2   force =     0.00006397    0.00002987    0.00001819
     atom    8 type  2   force =     0.00000203    0.00019822   -0.00009514
     atom    9 type  2   force =     0.00016694    0.00013225   -0.00014692
     atom   10 type  1   force =     0.00056054   -0.00016322   -0.00020861
     atom   11 type  1   force =    -0.00038861    0.00022683   -0.00004630
     atom   12 type  1   force =     0.00024892    0.00060830   -0.00000497
     atom   13 type  1   force =    -0.00002006   -0.00013705   -0.00002262
     atom   14 type  1   force =     0.00021039   -0.00005979   -0.00029771
     atom   15 type  1   force =    -0.00022522    0.00015338   -0.00024388
     atom   16 type  2   force =    -0.00016265   -0.00029540   -0.00028827
     atom   17 type  2   force =    -0.00004143   -0.00013374    0.00044139
     atom   18 type  2   force =     0.00017696   -0.00008053    0.00056612
     atom   19 type  1   force =    -0.00013771    0.00018153   -0.00028960
     atom   20 type  1   force =     0.00010213    0.00010934    0.00010314
     atom   21 type  1   force =    -0.00007774   -0.00017677   -0.00020603
     atom   22 type  1   force =    -0.00001957    0.00009672   -0.00000732
     atom   23 type  1   force =     0.00003455    0.00009792    0.00008362
     atom   24 type  1   force =     0.00006061    0.00008252    0.00016564
     atom   25 type  2   force =     0.00001729    0.00009488    0.00007977
     atom   26 type  2   force =    -0.00001056    0.00009989   -0.00004232
     atom   27 type  2   force =     0.00000232   -0.00007628    0.00004319
     atom   28 type  1   force =    -0.00010582   -0.00026666   -0.00013629
     atom   29 type  1   force =    -0.00006375   -0.00009775    0.00008789
     atom   30 type  1   force =     0.00041115   -0.00001367   -0.00015787
     atom   31 type  1   force =     0.00013444    0.00006734   -0.00031986
     atom   32 type  1   force =    -0.00059136   -0.00014439   -0.00009029
     atom   33 type  1   force =    -0.00026764   -0.00019372    0.00011929
     atom   34 type  2   force =    -0.00003945    0.00028473   -0.00030807
     atom   35 type  2   force =     0.00007126    0.00005269    0.00053028
     atom   36 type  2   force =    -0.00000172   -0.00005967    0.00018320
     atom   37 type  1   force =     0.00010057    0.00015173   -0.00008981
     atom   38 type  1   force =     0.00008882    0.00007319   -0.00019791
     atom   39 type  1   force =    -0.00025895   -0.00014179   -0.00019155
     atom   40 type  1   force =    -0.00003459    0.00014668    0.00007339
     atom   41 type  1   force =     0.00009287    0.00005763    0.00028779
     atom   42 type  1   force =     0.00007037    0.00014232    0.00002710
     atom   43 type  2   force =     0.00001806    0.00020326    0.00006058
     atom   44 type  2   force =    -0.00019942    0.00004467    0.00001711
     atom   45 type  2   force =     0.00008715    0.00002424    0.00008126
     atom   46 type  1   force =     0.00020601   -0.00026419   -0.00009690
     atom   47 type  1   force =    -0.00020517   -0.00022141   -0.00017678
     atom   48 type  1   force =    -0.00004348    0.00012931   -0.00001271
     atom   49 type  1   force =    -0.00011795    0.00026126   -0.00026641
     atom   50 type  1   force =     0.00000500   -0.00034991    0.00003848
     atom   51 type  1   force =     0.00012045   -0.00045414   -0.00017619
     atom   52 type  2   force =     0.00008345    0.00015453   -0.00035626
     atom   53 type  2   force =    -0.00000907    0.00015464    0.00014671
     atom   54 type  2   force =     0.00000986   -0.00011587    0.00041799
     atom   55 type  1   force =     0.00005334    0.00020759   -0.00029508
     atom   56 type  1   force =     0.00007519    0.00013465   -0.00029826
     atom   57 type  1   force =     0.00010917    0.00018295   -0.00002715
     atom   58 type  1   force =     0.00001541   -0.00004506   -0.00003926
     atom   59 type  1   force =    -0.00009796   -0.00014997   -0.00007978
     atom   60 type  1   force =    -0.00005877   -0.00016369   -0.00008564
     atom   61 type  2   force =    -0.00019755   -0.00031491   -0.00020368
     atom   62 type  2   force =    -0.00004865   -0.00004378   -0.00016446
     atom   63 type  2   force =    -0.00002755   -0.00005974   -0.00028416
     atom   64 type  1   force =     0.00033896   -0.00002630   -0.00021997
     atom   65 type  1   force =    -0.00036858    0.00033895   -0.00045576
     atom   66 type  1   force =     0.00007879    0.00026236   -0.00020044
     atom   67 type  1   force =     0.00006989    0.00001495    0.00024115
     atom   68 type  1   force =     0.00015995   -0.00033139    0.00016849
     atom   69 type  1   force =    -0.00046345   -0.00002103    0.00014034
     atom   70 type  2   force =     0.00006898   -0.00006000   -0.00027458
     atom   71 type  2   force =     0.00008149   -0.00020353    0.00054240
     atom   72 type  2   force =    -0.00034235    0.00017654    0.00062227
     atom   73 type  3   force =    -0.00010209   -0.00010320   -0.00006972
     atom   74 type  4   force =    -0.00003028    0.00001317    0.00062326
     atom   75 type  4   force =     0.00093370    0.00035197    0.00080706
     atom   76 type  4   force =     0.00002740   -0.00074727   -0.00005382
     atom   77 type  4   force =    -0.00000511    0.00019142    0.00058534

     Total force =     0.003420     Total SCF correction =     0.000049
     Energy error            =      2.0E-05 Ry
     Gradient error          =      9.3E-04 Ry/Bohr

     bfgs converged in  58 scf cycles and  57 bfgs steps
     (criteria: energy <  1.0E-04 Ry, force <  1.0E-03 Ry/Bohr)

     End of BFGS Geometry Optimization

     Final energy             =  -12616.4648947436 Ry

     File tmp/CH4-H31_Rot0_bridge_/CH4-H31_Rot0_bridge_.bfgs deleted, as requested
Begin final coordinates

ATOMIC_POSITIONS (angstrom)
Cr              -1.5941304147        2.7616965474        8.2402112806
Cr               3.1927169792       -0.0012294443        8.2387275653
Cr               0.7845610342        1.3558233777        8.2352786657
Cr               1.6324236953        2.8247846837        6.1074793976
Cr              -0.7428833641        1.2921113192        6.1059601821
Cr               1.4948739806       -0.0007430525        6.1063951216
N                0.0023635767       -0.0011805290        5.0650393025
N                2.3795961794        1.3717296050        7.0917754506
N                0.0011843209        2.7444234817        7.0936145931
Cr              -1.6538717561        2.8529620619       12.5091144338
Cr               3.2985190877       -0.0004492313       12.5103300416
Cr               0.7095498479        1.2093992035       12.4682868211
Cr               1.5999478747        2.7689648785       10.4334458182
Cr              -0.7883900452        1.3515907219       10.4222263440
Cr               1.5644915722       -0.0114648327       10.4199140528
N                0.0053680768        0.0067933884        9.3123421432
N                2.3726001438        1.3723656878       11.5335046544
N                0.0045488748        2.7369003548       11.5487306609
Cr              -3.9680630879        6.8812344560        8.2364345495
Cr               0.8236308815        4.1150187192        8.2338731691
Cr              -1.5934406541        5.4613779596        8.2362862054
Cr              -0.7423410017        6.9370069766        6.1081402556
Cr              -3.1194479928        5.4042409996        6.1124529604
Cr              -0.8826886797        4.1152754419        6.1059092693
N               -2.3744579365        4.1155881319        5.0638601225
N                0.0039905828        5.4854039567        7.0944308369
N               -2.3710384835        6.8581512507        7.0938876190
Cr              -4.0119348479        6.9637391656       12.5079974425
Cr               0.8925746421        4.0943343866       12.5426744742
Cr              -1.6537106843        5.3800629899       12.5272327206
Cr              -0.7721843757        6.8692275566       10.4311115083
Cr              -3.1306385697        5.4679595726       10.4228415916
Cr              -0.8035501041        4.1205470346       10.4447962750
N               -2.3653392079        4.1089710215        9.3250271209
N                0.0168069297        5.4799531728       11.5827547125
N               -2.3644307959        6.8565452011       11.5486866006
Cr               3.1564932908        2.7680312373        8.2339347045
Cr               7.9470128440        0.0031030847        8.2365725871
Cr               5.5309491619        1.3506116613        8.2333072891
Cr               6.3833771119        2.8239362557        6.1066195121
Cr               4.0087642833        1.2910330359        6.1043195990
Cr               6.2440487360       -0.0022469792        6.1125831816
N                4.7551871374       -0.0026529815        5.0644451698
N                7.1293669118        1.3737557953        7.0922561212
N                4.7521388432        2.7443998612        7.0914393318
Cr               3.0896683468        2.8105136713       12.5561137203
Cr               8.0400387308        0.0032712610       12.5062730556
Cr               5.4846364269        1.2498320168       12.5245802378
Cr               6.3317014752        2.7651743200       10.4367193895
Cr               3.9762612914        1.3648177969       10.4417781783
Cr               6.3047974225        0.0215390843       10.4213227840
N                4.7459355580        0.0073023822        9.3224382499
N                7.1226301825        1.3779446695       11.5496480890
N                4.7341067015        2.7555742145       11.5977009385
Cr               0.7788287740        6.8781074726        8.2443064959
Cr               5.5710000002        4.1098895578        8.2446916617
Cr               3.1571544893        5.4617449811        8.2386371992
Cr               4.0085339533        6.9388205636        6.1117600426
Cr               1.6326849557        5.4100439201        6.1091126326
Cr               3.8717999030        4.1171534601        6.1076789303
N                2.3798252898        4.1195424319        5.0665608818
N                4.7540724083        5.4857543185        7.0992808066
N                2.3782157337        6.8574130289        7.1004165406
Cr               0.7059640137        7.0156380546       12.5079552494
Cr               5.7338275424        4.1203397442       12.5107392762
Cr               3.1523283592        5.4600022755       12.4363311779
Cr               3.9737105362        6.8749163908       10.4326307143
Cr               1.5842761583        5.4708854509       10.4279967845
Cr               3.9511117212        4.1052739641       10.4287919043
N                2.3795847512        4.1155206394        9.3282360767
N                4.7865831579        5.4771090337       11.5309435893
N                2.3539126304        6.8830339050       11.5267198552
C                2.0121581616        3.5085972908       14.6996128731
H                1.6591287393        3.0505441707       15.6405684807
H                2.2790355476        2.5052681591       14.1947667451
H                1.0652912657        4.0861504217       14.4076967959
H                2.8368391837        4.1871524627       14.9336019335
End final coordinates



     Writing all to output data dir tmp/CH4-H31_Rot0_bridge_/CH4-H31_Rot0_bridge_.save/ :
     XML data file, charge density, pseudopotentials, collected wavefunctions
 
     init_run     :      4.56s CPU      5.42s WALL (       1 calls)
     electrons    :  11199.25s CPU  11513.45s WALL (       8 calls)
     update_pot   :      8.85s CPU      9.25s WALL (       7 calls)
     forces       :     83.21s CPU     86.23s WALL (       8 calls)
     force_dftd3  :      1.68s CPU      1.76s WALL (       8 calls)

     Called by init_run:
     wfcinit      :      0.16s CPU      0.16s WALL (       1 calls)
     potinit      :      1.07s CPU      1.55s WALL (       1 calls)
     hinit0       :      0.52s CPU      0.68s WALL (       1 calls)

     Called by electrons:
     c_bands      :   9210.89s CPU   9415.83s WALL (     283 calls)
     sum_band     :   1572.75s CPU   1629.13s WALL (     283 calls)
     v_of_rho     :    162.07s CPU    174.01s WALL (     284 calls)
     newd         :    121.59s CPU    157.40s WALL (     284 calls)
     PAW_pot      :    103.36s CPU    104.88s WALL (     291 calls)
     mix_rho      :     22.70s CPU     24.76s WALL (     283 calls)
     energy_dftd3 :      0.91s CPU      0.92s WALL (       8 calls)

     Called by c_bands:
     init_us_2    :    163.00s CPU    165.18s WALL (    1741 calls)
     cegterg      :   8646.37s CPU   8829.88s WALL (     848 calls)

     Called by *egterg:
     cdiaghg      :    291.26s CPU    294.43s WALL (    2774 calls)
     h_psi        :   4280.33s CPU   4359.83s WALL (    2816 calls)
     s_psi        :   1003.14s CPU   1013.02s WALL (    2816 calls)
     g_psi        :     19.59s CPU     19.82s WALL (    1968 calls)

     Called by h_psi:
     h_psi:calbec :   1012.91s CPU   1022.63s WALL (    2816 calls)
     vloc_psi     :   2225.70s CPU   2261.28s WALL (    2816 calls)
                                        0.00s GPU  (    2816 calls)
     add_vuspsi   :   1006.59s CPU   1016.56s WALL (    2816 calls)

     General routines
     calbec       :   1545.26s CPU   1560.27s WALL (    3782 calls)
     fft          :    130.58s CPU    141.71s WALL (    3778 calls)
     ffts         :      1.67s CPU      1.89s WALL (     567 calls)
     fftw         :   2185.32s CPU   2218.83s WALL ( 2138112 calls)
     interpolate  :      9.55s CPU     10.60s WALL (     284 calls)
     davcio       :      0.00s CPU      4.85s WALL (      19 calls)
 
     Parallel routines
 
     PWSCF        :      3h 8m CPU      3h14m WALL

 
   This run was terminated on:   6: 5:42   6Jun2026            

=------------------------------------------------------------------------------=
   JOB DONE.
=------------------------------------------------------------------------------=
