
     Program PWSCF v.7.5 starts on  9Jun2026 at  0: 5:18 

     This program is part of the open-source Quantum ESPRESSO suite
     for quantum simulation of materials; please cite
         "P. Giannozzi et al., J. Phys.:Condens. Matter 21 395502 (2009);
         "P. Giannozzi et al., J. Phys.:Condens. Matter 29 465901 (2017);
         "P. Giannozzi et al., J. Chem. Phys. 152 154105 (2020);
          URL http://www.quantum-espresso.org", 
     in publications or presentations arising from this work. More details at
     http://www.quantum-espresso.org/quote

     Parallel version (MPI & OpenMP), running on      64 processor cores
     Number of MPI processes:                64
     Threads/MPI process:                     1

     MPI processes distributed on     1 nodes
     1011052 MiB available memory on the printing compute node when the environment starts
 
     Reading input from generated_inputs/adsorcion/pw-CH4-H31_Rot30_bridge_.in
Warning: card &CELL ignored

     Current dimensions of program PWSCF are:
     Max number of different atomic species (ntypx) = 10
     Max number of k-points (npk) =  40000
     Max angular momentum in pseudopotentials (lmaxx) =  4
     file Cr.pbe-spn-kjpaw_psl.1.0.0.UPF: wavefunction(s)  3S 3P 3D renormalized
     file N.pbe-n-kjpaw_psl.1.0.0.UPF: wavefunction(s)  2S renormalized
     file C.pbe-n-kjpaw_psl.1.0.0.UPF: wavefunction(s)  2S 2P renormalized
     file H.pbe-kjpaw_psl.1.0.0.UPF: wavefunction(s)  1S renormalized
 
     K-points division:     npool     =       4
     R & G space division:  proc/nbgrp/npool/nimage =      16
     Subspace diagonalization in iterative solution of the eigenvalue problem:
     one sub-group per band group will be used
     scalapack distributed-memory algorithm (size of sub-group:  4*  4 procs)

 
     Parallelization info
     --------------------
     sticks:   dense  smooth     PW     G-vecs:    dense   smooth      PW
     Min        1166     388    104               281408    54158    7640
     Max        1167     389    105               281417    54165    7647
     Sum       18661    6217   1675              4502593   866593  122299
 
     Using Slab Decomposition
 


     bravais-lattice index     =            0
     lattice parameter (alat)  =      17.9576  a.u.
     unit-cell volume          =   10952.5767 (a.u.)^3
     number of atoms/cell      =           77
     number of atomic types    =            4
     number of electrons       =       800.00
     number of Kohn-Sham states=          480
     kinetic-energy cutoff     =      70.0000  Ry
     charge density cutoff     =     840.0000  Ry
     scf convergence threshold =      1.0E-08
     mixing beta               =       0.2000
     number of iterations used =            8  plain     mixing
     energy convergence thresh.=      1.0E-04
     force convergence thresh. =      1.0E-03
     Exchange-correlation= SLA  PW   PBX  PBC
                           (   1   4   3   4   0   0   0)
     nstep                     =          200


     celldm(1)=  17.957575  celldm(2)=   0.000000  celldm(3)=   0.000000
     celldm(4)=   0.000000  celldm(5)=   0.000000  celldm(6)=   0.000000

     crystal axes: (cart. coord. in units of alat)
               a(1) = (   1.000000   0.000000   0.000000 )  
               a(2) = (  -0.500000   0.866025   0.000000 )  
               a(3) = (   0.000000   0.000000   2.183951 )  

     reciprocal axes: (cart. coord. in units 2 pi/alat)
               b(1) = (  1.000000  0.577351  0.000000 )  
               b(2) = (  0.000000  1.154701  0.000000 )  
               b(3) = (  0.000000  0.000000  0.457886 )  


     PseudoPot. # 1 for Cr read from file:
     pseudo/Cr.pbe-spn-kjpaw_psl.1.0.0.UPF
     MD5 check sum: 198f1a2427a48552563eee314eba32ba
     Pseudo is Projector augmented-wave + core cor, Zval = 14.0
     Generated using &quot;atomic&quot; code by A. Dal Corso  v.6.3
     Shape of augmentation charge: PSQ
     Using radial grid of 1183 points,  6 beta functions with: 
                l(1) =   0
                l(2) =   0
                l(3) =   1
                l(4) =   1
                l(5) =   2
                l(6) =   2
     Q(r) pseudized with 0 coefficients 


     PseudoPot. # 2 for N  read from file:
     pseudo/N.pbe-n-kjpaw_psl.1.0.0.UPF
     MD5 check sum: 14c48229446f9f2d411169a3abcbc3fa
     Pseudo is Projector augmented-wave + core cor, Zval =  5.0
     Generated using &quot;atomic&quot; code by A. Dal Corso  v.6.3
     Shape of augmentation charge: PSQ
     Using radial grid of 1085 points,  4 beta functions with: 
                l(1) =   0
                l(2) =   0
                l(3) =   1
                l(4) =   1
     Q(r) pseudized with 0 coefficients 


     PseudoPot. # 3 for C  read from file:
     pseudo/C.pbe-n-kjpaw_psl.1.0.0.UPF
     MD5 check sum: 5f16ad9a65e90284d1d834d4ab3b0f7d
     Pseudo is Projector augmented-wave + core cor, Zval =  4.0
     Generated using &quot;atomic&quot; code by A. Dal Corso  v.6.3
     Shape of augmentation charge: PSQ
     Using radial grid of 1073 points,  4 beta functions with: 
                l(1) =   0
                l(2) =   0
                l(3) =   1
                l(4) =   1
     Q(r) pseudized with 0 coefficients 


     PseudoPot. # 4 for H  read from file:
     pseudo/H.pbe-kjpaw_psl.1.0.0.UPF
     MD5 check sum: d81a744832360e4a8af0b0b5b123bc2a
     Pseudo is Projector augmented-wave, Zval =  1.0
     Generated using &quot;atomic&quot; code by A. Dal Corso  v.6.3MaX
     Shape of augmentation charge: PSQ
     Using radial grid of  929 points,  2 beta functions with: 
                l(1) =   0
                l(2) =   0
     Q(r) pseudized with 0 coefficients 


     atomic species   valence    mass     pseudopotential
     Cr               14.00    51.99610     Cr( 1.00)
     N                 5.00    14.00670     N ( 1.00)
     C                 4.00    12.01100     C ( 1.00)
     H                 1.00     1.00800     H ( 1.00)

     No symmetry found



   Cartesian axes

     site n.     atom                  positions (alat units)
         1        Cr     tau(   1) = (  -0.1681591   0.2912601   0.8673998  )
         2        Cr     tau(   2) = (   0.3363182   0.0000000   0.8673998  )
         3        Cr     tau(   3) = (   0.0818405   0.1417518   0.8673993  )
         4        Cr     tau(   4) = (   0.1684970   0.2918454   0.6425759  )
         5        Cr     tau(   5) = (  -0.0815030   0.1411673   0.6425759  )
         6        Cr     tau(   6) = (   0.1630059   0.0000000   0.6425759  )
         7        N      tau(   7) = (   0.0000000   0.0000000   0.5261641  )
         8        N      tau(   8) = (   0.2500000   0.1443376   0.7485579  )
         9        N      tau(   9) = (   0.0000000   0.2886752   0.7485579  )
        10        Cr     tau(  10) = (  -0.1730001   0.2996450   1.3148727  )
        11        Cr     tau(  11) = (   0.3460003   0.0000000   1.3148727  )
        12        Cr     tau(  12) = (   0.0770029   0.1333729   1.3148745  )
        13        Cr     tau(  13) = (   0.1677092   0.2904808   1.0968932  )
        14        Cr     tau(  14) = (  -0.0822901   0.1425306   1.0968938  )
        15        Cr     tau(  15) = (   0.1645802   0.0000000   1.0968938  )
        16        N      tau(  16) = (   0.0000000   0.0000000   0.9808490  )
        17        N      tau(  17) = (   0.2500004   0.1443372   1.2145625  )
        18        N      tau(  18) = (  -0.0000005   0.2886753   1.2145625  )
        19        Cr     tau(  19) = (  -0.4181595   0.7242736   0.8673993  )
        20        Cr     tau(  20) = (   0.0863184   0.4330126   0.8674001  )
        21        Cr     tau(  21) = (  -0.1681593   0.5747652   0.8674001  )
        22        Cr     tau(  22) = (  -0.0815030   0.7248581   0.6425759  )
        23        Cr     tau(  23) = (  -0.3315030   0.5741800   0.6425759  )
        24        Cr     tau(  24) = (  -0.0869941   0.4330127   0.6425759  )
        25        N      tau(  25) = (  -0.2500000   0.4330127   0.5261641  )
        26        N      tau(  26) = (   0.0000000   0.5773503   0.7485581  )
        27        N      tau(  27) = (  -0.2500000   0.7216878   0.7485579  )
        28        Cr     tau(  28) = (  -0.4229971   0.7326525   1.3148745  )
        29        Cr     tau(  29) = (   0.0959968   0.4330121   1.3148749  )
        30        Cr     tau(  30) = (  -0.1729989   0.5663837   1.3148749  )
        31        Cr     tau(  31) = (  -0.0822898   0.7234940   1.0968932  )
        32        Cr     tau(  32) = (  -0.3322908   0.5755446   1.0968932  )
        33        Cr     tau(  33) = (  -0.0854193   0.4330133   1.0968932  )
        34        N      tau(  34) = (  -0.2500001   0.4330128   0.9808490  )
        35        N      tau(  35) = (   0.0000000   0.5773503   1.2145635  )
        36        N      tau(  36) = (  -0.2499996   0.7216882   1.2145625  )
        37        Cr     tau(  37) = (   0.3318407   0.2912602   0.8674001  )
        38        Cr     tau(  38) = (   0.8363191   0.0000000   0.8673993  )
        39        Cr     tau(  39) = (   0.5818409   0.1417524   0.8674001  )
        40        Cr     tau(  40) = (   0.6684970   0.2918454   0.6425759  )
        41        Cr     tau(  41) = (   0.4184970   0.1411673   0.6425759  )
        42        Cr     tau(  42) = (   0.6630059   0.0000000   0.6425759  )
        43        N      tau(  43) = (   0.5000000   0.0000000   0.5261641  )
        44        N      tau(  44) = (   0.7500000   0.1443376   0.7485579  )
        45        N      tau(  45) = (   0.5000000   0.2886751   0.7485581  )
        46        Cr     tau(  46) = (   0.3270011   0.2996417   1.3148749  )
        47        Cr     tau(  47) = (   0.8459942   0.0000000   1.3148745  )
        48        Cr     tau(  48) = (   0.5770021   0.1333704   1.3148749  )
        49        Cr     tau(  49) = (   0.6677091   0.2904819   1.0968932  )
        50        Cr     tau(  50) = (   0.4177102   0.1425314   1.0968932  )
        51        Cr     tau(  51) = (   0.6645817   0.0000000   1.0968932  )
        52        N      tau(  52) = (   0.5000001   0.0000000   0.9808490  )
        53        N      tau(  53) = (   0.7500001   0.1443381   1.2145625  )
        54        N      tau(  54) = (   0.5000000   0.2886751   1.2145635  )
        55        Cr     tau(  55) = (   0.0818409   0.7242730   0.8674001  )
        56        Cr     tau(  56) = (   0.5863184   0.4330128   0.8674001  )
        57        Cr     tau(  57) = (   0.3318409   0.5747653   0.8673998  )
        58        Cr     tau(  58) = (   0.4184970   0.7248581   0.6425759  )
        59        Cr     tau(  59) = (   0.1684970   0.5741800   0.6425759  )
        60        Cr     tau(  60) = (   0.4130059   0.4330127   0.6425759  )
        61        N      tau(  61) = (   0.2500000   0.4330127   0.5261641  )
        62        N      tau(  62) = (   0.5000000   0.5773502   0.7485579  )
        63        N      tau(  63) = (   0.2500000   0.7216878   0.7485579  )
        64        Cr     tau(  64) = (   0.0770021   0.7326550   1.3148749  )
        65        Cr     tau(  65) = (   0.5959968   0.4330133   1.3148749  )
        66        Cr     tau(  66) = (   0.3269999   0.5663804   1.3148727  )
        67        Cr     tau(  67) = (   0.4177099   0.7234948   1.0968938  )
        68        Cr     tau(  68) = (   0.1677091   0.5755435   1.0968932  )
        69        Cr     tau(  69) = (   0.4145807   0.4330121   1.0968932  )
        70        N      tau(  70) = (   0.2499999   0.4330126   0.9808490  )
        71        N      tau(  71) = (   0.4999995   0.5773501   1.2145625  )
        72        N      tau(  72) = (   0.2500001   0.7216873   1.2145625  )
        73        C      tau(  73) = (   0.2114989   0.3663269   1.5635703  )
        74        H      tau(  74) = (   0.2115033   0.3663193   1.6782720  )
        75        H      tau(  75) = (   0.2655683   0.2726760   1.5253282  )
        76        H      tau(  76) = (   0.1033558   0.3663294   1.5253406  )
        77        H      tau(  77) = (   0.2655683   0.4599829   1.5253406  )

     --------------------------------------------
     DFT-D3 Dispersion Correction (3-body terms):
     --------------------------------------------
       Reference C6 values for interpolation: 

         atom   Coordination number   C6
         H          0.912             6.05
         H          0.000            15.18
         C          0.000            98.23
         C          0.987            86.49
         C          1.998            58.72
         C          2.999            51.56
         C          3.984            36.41
         N          0.000            50.54
         N          0.994            44.25
         N          2.014            39.35
         N          2.990            31.16
         Cr         0.000          1381.48
         Cr         1.827           571.38
         Cr        10.619           306.69

       Values used:

         atom   Coordination number  R0_AB[au]  C6      C8
         Cr        12.627            3.252    306.69  28303.74
         Cr        12.627            3.252    306.69  28303.74
         Cr        12.627            3.252    306.69  28303.74
         Cr        10.143            3.252    306.69  28303.74
         Cr        10.143            3.252    306.69  28303.74
         Cr        10.143            3.252    306.69  28303.74
         N          3.022            2.478     31.29    690.36
         N          6.023            2.478     31.16    687.49
         N          6.023            2.478     31.16    687.49
         Cr         9.072            3.252    306.69  28303.74
         Cr         9.072            3.252    306.69  28303.74
         Cr         9.086            3.252    306.69  28303.74
         Cr        12.749            3.252    306.69  28303.74
         Cr        12.748            3.252    306.69  28303.74
         Cr        12.748            3.252    306.69  28303.74
         N          6.047            2.478     31.16    687.49
         N          6.033            2.478     31.16    687.49
         N          6.033            2.478     31.16    687.49
         Cr        12.627            3.252    306.69  28303.74
         Cr        12.627            3.252    306.69  28303.74
         Cr        12.627            3.252    306.69  28303.74
         Cr        10.143            3.252    306.69  28303.74
         Cr        10.143            3.252    306.69  28303.74
         Cr        10.143            3.252    306.69  28303.74
         N          3.022            2.478     31.29    690.36
         N          6.023            2.478     31.16    687.49
         N          6.023            2.478     31.16    687.49
         Cr         9.071            3.252    306.69  28303.74
         Cr         9.477            3.252    306.69  28303.74
         Cr         9.071            3.252    306.69  28303.74
         Cr        12.748            3.252    306.69  28303.74
         Cr        12.748            3.252    306.69  28303.74
         Cr        12.748            3.252    306.69  28303.74
         N          6.047            2.478     31.16    687.49
         N          6.032            2.478     31.16    687.49
         N          6.032            2.478     31.16    687.49
         Cr        12.627            3.252    306.69  28303.74
         Cr        12.627            3.252    306.69  28303.74
         Cr        12.627            3.252    306.69  28303.74
         Cr        10.143            3.252    306.69  28303.74
         Cr        10.143            3.252    306.69  28303.74
         Cr        10.143            3.252    306.69  28303.74
         N          3.022            2.478     31.29    690.36
         N          6.023            2.478     31.16    687.49
         N          6.023            2.478     31.16    687.49
         Cr         9.477            3.252    306.69  28303.74
         Cr         9.071            3.252    306.69  28303.74
         Cr         9.071            3.252    306.69  28303.74
         Cr        12.748            3.252    306.69  28303.74
         Cr        12.748            3.252    306.69  28303.74
         Cr        12.748            3.252    306.69  28303.74
         N          6.047            2.478     31.16    687.49
         N          6.032            2.478     31.16    687.49
         N          6.032            2.478     31.16    687.49
         Cr        12.627            3.252    306.69  28303.74
         Cr        12.627            3.252    306.69  28303.74
         Cr        12.627            3.252    306.69  28303.74
         Cr        10.143            3.252    306.69  28303.74
         Cr        10.143            3.252    306.69  28303.74
         Cr        10.143            3.252    306.69  28303.74
         N          3.022            2.478     31.29    690.36
         N          6.023            2.478     31.16    687.49
         N          6.023            2.478     31.16    687.49
         Cr         9.072            3.252    306.69  28303.74
         Cr         9.072            3.252    306.69  28303.74
         Cr         9.146            3.252    306.69  28303.74
         Cr        12.748            3.252    306.69  28303.74
         Cr        12.748            3.252    306.69  28303.74
         Cr        12.748            3.252    306.69  28303.74
         N          6.047            2.478     31.16    687.49
         N          6.032            2.478     31.16    687.49
         N          6.032            2.478     31.16    687.49
         C          4.450            2.750     36.42   1053.34
         H          0.997            2.062      6.18     74.75
         H          1.177            2.062      6.09     73.60
         H          1.177            2.062      6.09     73.60
         H          1.077            2.062      6.13     74.06

         Molecular C6 ( Ry / a.u.^6 ) =    974378.33


     number of k points=    10  Methfessel-Paxton smearing, width (Ry)=  0.0200
                       cart. coord. in units 2pi/alat
        k(    1) = (   0.0000000   0.0000000   0.0000000), wk =   0.1250000
        k(    2) = (   0.0000000   0.2886753   0.0000000), wk =   0.2500000
        k(    3) = (   0.0000000  -0.5773505   0.0000000), wk =   0.1250000
        k(    4) = (   0.2500000   0.1443376   0.0000000), wk =   0.2500000
        k(    5) = (   0.2500000   0.4330129   0.0000000), wk =   0.2500000
        k(    6) = (   0.2500000  -0.4330129   0.0000000), wk =   0.2500000
        k(    7) = (   0.2500000  -0.1443376   0.0000000), wk =   0.2500000
        k(    8) = (  -0.5000000  -0.2886753   0.0000000), wk =   0.1250000
        k(    9) = (  -0.5000000   0.0000000   0.0000000), wk =   0.2500000
        k(   10) = (  -0.5000000  -0.8660258   0.0000000), wk =   0.1250000

     Dense  grid:  4502593 G-vectors     FFT dimensions: ( 180, 180, 375)

     Smooth grid:   866593 G-vectors     FFT dimensions: (  96,  96, 216)

     Estimated max dynamical RAM per process >     867.27 MB

     Estimated total dynamical RAM >      50.98 GB

     Initial potential from superposition of free atoms

     starting charge     799.9627, renormalised to     800.0000

     negative rho (up, down):  4.119E-04 0.000E+00
     Starting wfcs are  584 randomized atomic wfcs
     Checking if some PAW data can be deallocated... 

     total cpu time spent up to now is       19.8 secs

     Self-consistent Calculation

     iteration #  1     ecut=    70.00 Ry     beta= 0.20
     Davidson diagonalization with overlap
     ethr =  1.00E-02,  avg # of iterations =  2.7

     negative rho (up, down):  1.630E-04 0.000E+00

     total cpu time spent up to now is       66.1 secs

     total energy              =  -12610.68249852 Ry
     estimated scf accuracy    <      28.93181768 Ry

     iteration #  2     ecut=    70.00 Ry     beta= 0.20
     Davidson diagonalization with overlap
     ethr =  3.62E-03,  avg # of iterations =  6.3

     negative rho (up, down):  4.771E-04 0.000E+00

     total cpu time spent up to now is      121.9 secs

     total energy              =  -12600.32161331 Ry
     estimated scf accuracy    <     660.28104013 Ry

     iteration #  3     ecut=    70.00 Ry     beta= 0.20
     Davidson diagonalization with overlap
     ethr =  3.62E-03,  avg # of iterations =  2.8

     negative rho (up, down):  6.944E-04 0.000E+00

     total cpu time spent up to now is      164.1 secs

     total energy              =  -12608.87976077 Ry
     estimated scf accuracy    <     485.90078655 Ry

     iteration #  4     ecut=    70.00 Ry     beta= 0.20
     Davidson diagonalization with overlap
     ethr =  3.62E-03,  avg # of iterations =  2.0

     negative rho (up, down):  3.383E-04 0.000E+00

     total cpu time spent up to now is      204.7 secs

     total energy              =  -12614.81784362 Ry
     estimated scf accuracy    <      86.04303635 Ry

     iteration #  5     ecut=    70.00 Ry     beta= 0.20
     Davidson diagonalization with overlap
     ethr =  3.62E-03,  avg # of iterations =  1.2

     negative rho (up, down):  4.274E-04 0.000E+00

     total cpu time spent up to now is      242.8 secs

     total energy              =  -12615.31663419 Ry
     estimated scf accuracy    <      23.85871786 Ry

     iteration #  6     ecut=    70.00 Ry     beta= 0.20
     Davidson diagonalization with overlap
     ethr =  2.98E-03,  avg # of iterations =  1.0

     negative rho (up, down):  5.082E-04 0.000E+00

     total cpu time spent up to now is      278.5 secs

     total energy              =  -12616.18219565 Ry
     estimated scf accuracy    <       3.20989316 Ry

     iteration #  7     ecut=    70.00 Ry     beta= 0.20
     Davidson diagonalization with overlap
     ethr =  4.01E-04,  avg # of iterations = 13.7

     negative rho (up, down):  5.210E-04 0.000E+00

     total cpu time spent up to now is      331.0 secs

     total energy              =  -12616.34515195 Ry
     estimated scf accuracy    <       2.02729521 Ry

     iteration #  8     ecut=    70.00 Ry     beta= 0.20
     Davidson diagonalization with overlap
     ethr =  2.53E-04,  avg # of iterations =  2.1

     negative rho (up, down):  5.447E-04 0.000E+00

     total cpu time spent up to now is      371.7 secs

     total energy              =  -12616.36387657 Ry
     estimated scf accuracy    <       0.84199224 Ry

     iteration #  9     ecut=    70.00 Ry     beta= 0.20
     Davidson diagonalization with overlap
     ethr =  1.05E-04,  avg # of iterations =  3.1

     negative rho (up, down):  4.437E-04 0.000E+00

     total cpu time spent up to now is      413.7 secs

     total energy              =  -12616.35852830 Ry
     estimated scf accuracy    <       0.62764717 Ry

     iteration # 10     ecut=    70.00 Ry     beta= 0.20
     Davidson diagonalization with overlap
     ethr =  7.85E-05,  avg # of iterations =  2.0

     negative rho (up, down):  3.989E-04 0.000E+00

     total cpu time spent up to now is      454.3 secs

     total energy              =  -12616.35200254 Ry
     estimated scf accuracy    <       0.55959544 Ry

     iteration # 11     ecut=    70.00 Ry     beta= 0.20
     Davidson diagonalization with overlap
     ethr =  6.99E-05,  avg # of iterations =  2.0

     negative rho (up, down):  4.257E-04 0.000E+00

     total cpu time spent up to now is      494.9 secs

     total energy              =  -12616.36654198 Ry
     estimated scf accuracy    <       0.23351708 Ry

     iteration # 12     ecut=    70.00 Ry     beta= 0.20
     Davidson diagonalization with overlap
     c_bands:  1 eigenvalues not converged
     ethr =  2.92E-05,  avg # of iterations = 12.7

     negative rho (up, down):  3.056E-04 0.000E+00

     total cpu time spent up to now is      549.0 secs

     total energy              =  -12616.36133810 Ry
     estimated scf accuracy    <       0.56182721 Ry

     iteration # 13     ecut=    70.00 Ry     beta= 0.20
     Davidson diagonalization with overlap
     ethr =  2.92E-05,  avg # of iterations =  1.9

     negative rho (up, down):  2.638E-04 0.000E+00

     total cpu time spent up to now is      587.6 secs

     total energy              =  -12616.36947678 Ry
     estimated scf accuracy    <       0.14173964 Ry

     iteration # 14     ecut=    70.00 Ry     beta= 0.20
     Davidson diagonalization with overlap
     ethr =  1.77E-05,  avg # of iterations =  1.2

     negative rho (up, down):  2.240E-04 0.000E+00

     total cpu time spent up to now is      624.9 secs

     total energy              =  -12616.37037905 Ry
     estimated scf accuracy    <       0.06494985 Ry

     iteration # 15     ecut=    70.00 Ry     beta= 0.20
     Davidson diagonalization with overlap
     ethr =  8.12E-06,  avg # of iterations =  5.5

     negative rho (up, down):  2.044E-04 0.000E+00

     total cpu time spent up to now is      669.6 secs

     total energy              =  -12616.36893050 Ry
     estimated scf accuracy    <       0.26794673 Ry

     iteration # 16     ecut=    70.00 Ry     beta= 0.20
     Davidson diagonalization with overlap
     ethr =  8.12E-06,  avg # of iterations =  1.2

     negative rho (up, down):  1.999E-04 0.000E+00

     total cpu time spent up to now is      706.8 secs

     total energy              =  -12616.37263034 Ry
     estimated scf accuracy    <       0.02738616 Ry

     iteration # 17     ecut=    70.00 Ry     beta= 0.20
     Davidson diagonalization with overlap
     c_bands:  2 eigenvalues not converged
     ethr =  3.42E-06,  avg # of iterations =  6.6

     negative rho (up, down):  2.015E-04 0.000E+00

     total cpu time spent up to now is      753.1 secs

     total energy              =  -12616.37266540 Ry
     estimated scf accuracy    <       0.03851906 Ry

     iteration # 18     ecut=    70.00 Ry     beta= 0.20
     Davidson diagonalization with overlap
     ethr =  3.42E-06,  avg # of iterations =  1.4

     negative rho (up, down):  2.023E-04 0.000E+00

     total cpu time spent up to now is      792.9 secs

     total energy              =  -12616.37303142 Ry
     estimated scf accuracy    <       0.03644532 Ry

     iteration # 19     ecut=    70.00 Ry     beta= 0.20
     Davidson diagonalization with overlap
     ethr =  3.42E-06,  avg # of iterations =  1.2

     negative rho (up, down):  2.040E-04 0.000E+00

     total cpu time spent up to now is      830.9 secs

     total energy              =  -12616.37393474 Ry
     estimated scf accuracy    <       0.00747360 Ry

     iteration # 20     ecut=    70.00 Ry     beta= 0.20
     Davidson diagonalization with overlap
     ethr =  9.34E-07,  avg # of iterations =  1.9

     negative rho (up, down):  2.063E-04 0.000E+00

     total cpu time spent up to now is      871.2 secs

     total energy              =  -12616.37407596 Ry
     estimated scf accuracy    <       0.00484594 Ry

     iteration # 21     ecut=    70.00 Ry     beta= 0.20
     Davidson diagonalization with overlap
     ethr =  6.06E-07,  avg # of iterations =  1.5

     negative rho (up, down):  2.094E-04 0.000E+00

     total cpu time spent up to now is      910.8 secs

     total energy              =  -12616.37424795 Ry
     estimated scf accuracy    <       0.00313283 Ry

     iteration # 22     ecut=    70.00 Ry     beta= 0.20
     Davidson diagonalization with overlap
     ethr =  3.92E-07,  avg # of iterations =  2.0

     negative rho (up, down):  2.131E-04 0.000E+00

     total cpu time spent up to now is      951.4 secs

     total energy              =  -12616.37432833 Ry
     estimated scf accuracy    <       0.00346366 Ry

     iteration # 23     ecut=    70.00 Ry     beta= 0.20
     Davidson diagonalization with overlap
     ethr =  3.92E-07,  avg # of iterations =  1.0

     negative rho (up, down):  2.164E-04 0.000E+00

     total cpu time spent up to now is      986.9 secs

     total energy              =  -12616.37443175 Ry
     estimated scf accuracy    <       0.00093496 Ry

     iteration # 24     ecut=    70.00 Ry     beta= 0.20
     Davidson diagonalization with overlap
     ethr =  1.17E-07,  avg # of iterations =  2.7

     negative rho (up, down):  2.154E-04 0.000E+00

     total cpu time spent up to now is     1028.2 secs

     total energy              =  -12616.37445534 Ry
     estimated scf accuracy    <       0.00086430 Ry

     iteration # 25     ecut=    70.00 Ry     beta= 0.20
     Davidson diagonalization with overlap
     ethr =  1.08E-07,  avg # of iterations =  1.4

     negative rho (up, down):  2.156E-04 0.000E+00

     total cpu time spent up to now is     1067.7 secs

     total energy              =  -12616.37444068 Ry
     estimated scf accuracy    <       0.00235730 Ry

     iteration # 26     ecut=    70.00 Ry     beta= 0.20
     Davidson diagonalization with overlap
     ethr =  1.08E-07,  avg # of iterations =  1.6

     negative rho (up, down):  2.160E-04 0.000E+00

     total cpu time spent up to now is     1107.4 secs

     total energy              =  -12616.37446773 Ry
     estimated scf accuracy    <       0.00184205 Ry

     iteration # 27     ecut=    70.00 Ry     beta= 0.20
     Davidson diagonalization with overlap
     ethr =  1.08E-07,  avg # of iterations =  1.0

     negative rho (up, down):  2.165E-04 0.000E+00

     total cpu time spent up to now is     1143.1 secs

     total energy              =  -12616.37449644 Ry
     estimated scf accuracy    <       0.00020673 Ry

     iteration # 28     ecut=    70.00 Ry     beta= 0.20
     Davidson diagonalization with overlap
     ethr =  2.58E-08,  avg # of iterations =  2.8

     negative rho (up, down):  2.153E-04 0.000E+00

     total cpu time spent up to now is     1184.9 secs

     total energy              =  -12616.37450329 Ry
     estimated scf accuracy    <       0.00023658 Ry

     iteration # 29     ecut=    70.00 Ry     beta= 0.20
     Davidson diagonalization with overlap
     ethr =  2.58E-08,  avg # of iterations =  1.5

     negative rho (up, down):  2.155E-04 0.000E+00

     total cpu time spent up to now is     1224.4 secs

     total energy              =  -12616.37450221 Ry
     estimated scf accuracy    <       0.00028680 Ry

     iteration # 30     ecut=    70.00 Ry     beta= 0.20
     Davidson diagonalization with overlap
     ethr =  2.58E-08,  avg # of iterations =  1.1

     negative rho (up, down):  2.154E-04 0.000E+00

     total cpu time spent up to now is     1261.2 secs

     total energy              =  -12616.37451058 Ry
     estimated scf accuracy    <       0.00003426 Ry

     iteration # 31     ecut=    70.00 Ry     beta= 0.20
     Davidson diagonalization with overlap
     ethr =  4.28E-09,  avg # of iterations =  6.3

     negative rho (up, down):  2.149E-04 0.000E+00

     total cpu time spent up to now is     1305.2 secs

     total energy              =  -12616.37451070 Ry
     estimated scf accuracy    <       0.00004308 Ry

     iteration # 32     ecut=    70.00 Ry     beta= 0.20
     Davidson diagonalization with overlap
     ethr =  4.28E-09,  avg # of iterations =  1.0

     negative rho (up, down):  2.148E-04 0.000E+00

     total cpu time spent up to now is     1340.9 secs

     total energy              =  -12616.37451084 Ry
     estimated scf accuracy    <       0.00001454 Ry

     iteration # 33     ecut=    70.00 Ry     beta= 0.20
     Davidson diagonalization with overlap
     ethr =  1.82E-09,  avg # of iterations =  3.7

     negative rho (up, down):  2.145E-04 0.000E+00

     total cpu time spent up to now is     1383.1 secs

     total energy              =  -12616.37451036 Ry
     estimated scf accuracy    <       0.00001255 Ry

     iteration # 34     ecut=    70.00 Ry     beta= 0.20
     Davidson diagonalization with overlap
     ethr =  1.57E-09,  avg # of iterations =  2.0

     negative rho (up, down):  2.142E-04 0.000E+00

     total cpu time spent up to now is     1423.8 secs

     total energy              =  -12616.37450953 Ry
     estimated scf accuracy    <       0.00002725 Ry

     iteration # 35     ecut=    70.00 Ry     beta= 0.20
     Davidson diagonalization with overlap
     ethr =  1.57E-09,  avg # of iterations =  1.3

     negative rho (up, down):  2.138E-04 0.000E+00

     total cpu time spent up to now is     1463.0 secs

     total energy              =  -12616.37450933 Ry
     estimated scf accuracy    <       0.00003005 Ry

     iteration # 36     ecut=    70.00 Ry     beta= 0.20
     Davidson diagonalization with overlap
     ethr =  1.57E-09,  avg # of iterations =  1.0

     negative rho (up, down):  2.138E-04 0.000E+00

     total cpu time spent up to now is     1498.5 secs

     total energy              =  -12616.37450979 Ry
     estimated scf accuracy    <       0.00001115 Ry

     iteration # 37     ecut=    70.00 Ry     beta= 0.20
     Davidson diagonalization with overlap
     ethr =  1.39E-09,  avg # of iterations =  1.0

     negative rho (up, down):  2.137E-04 0.000E+00

     total cpu time spent up to now is     1534.2 secs

     total energy              =  -12616.37450996 Ry
     estimated scf accuracy    <       0.00000402 Ry

     iteration # 38     ecut=    70.00 Ry     beta= 0.20
     Davidson diagonalization with overlap
     ethr =  5.03E-10,  avg # of iterations =  1.1

     negative rho (up, down):  2.137E-04 0.000E+00

     total cpu time spent up to now is     1571.1 secs

     total energy              =  -12616.37450989 Ry
     estimated scf accuracy    <       0.00000137 Ry

     iteration # 39     ecut=    70.00 Ry     beta= 0.20
     Davidson diagonalization with overlap
     ethr =  1.71E-10,  avg # of iterations =  3.3

     negative rho (up, down):  2.136E-04 0.000E+00

     total cpu time spent up to now is     1613.2 secs

     total energy              =  -12616.37450982 Ry
     estimated scf accuracy    <       0.00000255 Ry

     iteration # 40     ecut=    70.00 Ry     beta= 0.20
     Davidson diagonalization with overlap
     ethr =  1.71E-10,  avg # of iterations =  1.0

     negative rho (up, down):  2.135E-04 0.000E+00

     total cpu time spent up to now is     1648.8 secs

     total energy              =  -12616.37450979 Ry
     estimated scf accuracy    <       0.00000164 Ry

     iteration # 41     ecut=    70.00 Ry     beta= 0.20
     Davidson diagonalization with overlap
     ethr =  1.71E-10,  avg # of iterations =  2.0

     negative rho (up, down):  2.135E-04 0.000E+00

     total cpu time spent up to now is     1689.2 secs

     total energy              =  -12616.37450973 Ry
     estimated scf accuracy    <       0.00000353 Ry

     iteration # 42     ecut=    70.00 Ry     beta= 0.20
     Davidson diagonalization with overlap
     ethr =  1.71E-10,  avg # of iterations =  1.0

     negative rho (up, down):  2.135E-04 0.000E+00

     total cpu time spent up to now is     1724.9 secs

     total energy              =  -12616.37450982 Ry
     estimated scf accuracy    <       0.00000059 Ry

     iteration # 43     ecut=    70.00 Ry     beta= 0.20
     Davidson diagonalization with overlap
     ethr =  7.40E-11,  avg # of iterations =  1.8

     negative rho (up, down):  2.135E-04 0.000E+00

     total cpu time spent up to now is     1764.9 secs

     total energy              =  -12616.37450982 Ry
     estimated scf accuracy    <       0.00000058 Ry

     iteration # 44     ecut=    70.00 Ry     beta= 0.20
     Davidson diagonalization with overlap
     ethr =  7.19E-11,  avg # of iterations =  1.0

     negative rho (up, down):  2.135E-04 0.000E+00

     total cpu time spent up to now is     1800.7 secs

     total energy              =  -12616.37450983 Ry
     estimated scf accuracy    <       0.00000031 Ry

     iteration # 45     ecut=    70.00 Ry     beta= 0.20
     Davidson diagonalization with overlap
     ethr =  3.92E-11,  avg # of iterations =  1.8

     negative rho (up, down):  2.134E-04 0.000E+00

     total cpu time spent up to now is     1841.3 secs

     total energy              =  -12616.37450981 Ry
     estimated scf accuracy    <       0.00000031 Ry

     iteration # 46     ecut=    70.00 Ry     beta= 0.20
     Davidson diagonalization with overlap
     ethr =  3.86E-11,  avg # of iterations =  1.0

     negative rho (up, down):  2.134E-04 0.000E+00

     total cpu time spent up to now is     1876.8 secs

     total energy              =  -12616.37450980 Ry
     estimated scf accuracy    <       0.00000034 Ry

     iteration # 47     ecut=    70.00 Ry     beta= 0.20
     Davidson diagonalization with overlap
     ethr =  3.86E-11,  avg # of iterations =  1.0

     negative rho (up, down):  2.134E-04 0.000E+00

     total cpu time spent up to now is     1912.6 secs

     total energy              =  -12616.37450980 Ry
     estimated scf accuracy    <       0.00000079 Ry

     iteration # 48     ecut=    70.00 Ry     beta= 0.20
     Davidson diagonalization with overlap
     ethr =  3.86E-11,  avg # of iterations =  1.0

     negative rho (up, down):  2.134E-04 0.000E+00

     total cpu time spent up to now is     1948.2 secs

     total energy              =  -12616.37450980 Ry
     estimated scf accuracy    <       0.00000046 Ry

     iteration # 49     ecut=    70.00 Ry     beta= 0.20
     Davidson diagonalization with overlap
     ethr =  3.86E-11,  avg # of iterations =  1.0

     negative rho (up, down):  2.133E-04 0.000E+00

     total cpu time spent up to now is     1983.9 secs

     total energy              =  -12616.37450980 Ry
     estimated scf accuracy    <       0.00000017 Ry

     iteration # 50     ecut=    70.00 Ry     beta= 0.20
     Davidson diagonalization with overlap
     ethr =  2.15E-11,  avg # of iterations =  1.0

     negative rho (up, down):  2.133E-04 0.000E+00

     total cpu time spent up to now is     2019.7 secs

     total energy              =  -12616.37450980 Ry
     estimated scf accuracy    <       0.00000011 Ry

     iteration # 51     ecut=    70.00 Ry     beta= 0.20
     Davidson diagonalization with overlap
     ethr =  1.37E-11,  avg # of iterations =  1.0

     negative rho (up, down):  2.133E-04 0.000E+00

     total cpu time spent up to now is     2055.5 secs

     total energy              =  -12616.37450980 Ry
     estimated scf accuracy    <       0.00000001 Ry

     iteration # 52     ecut=    70.00 Ry     beta= 0.20
     Davidson diagonalization with overlap
     ethr =  1.71E-12,  avg # of iterations =  5.9

     negative rho (up, down):  2.133E-04 0.000E+00

     total cpu time spent up to now is     2099.0 secs

     total energy              =  -12616.37450980 Ry
     estimated scf accuracy    <       0.00000007 Ry

     iteration # 53     ecut=    70.00 Ry     beta= 0.20
     Davidson diagonalization with overlap
     ethr =  1.71E-12,  avg # of iterations =  2.0

     negative rho (up, down):  2.133E-04 0.000E+00

     total cpu time spent up to now is     2139.6 secs

     total energy              =  -12616.37450980 Ry
     estimated scf accuracy    <       0.00000003 Ry

     iteration # 54     ecut=    70.00 Ry     beta= 0.20
     Davidson diagonalization with overlap
     ethr =  1.71E-12,  avg # of iterations =  1.0

     negative rho (up, down):  2.133E-04 0.000E+00

     total cpu time spent up to now is     2175.1 secs

     End of self-consistent calculation

          k = 0.0000 0.0000 0.0000 (108303 PWs)   bands (ev):

   -66.9801 -66.9398 -66.9398 -66.9393 -66.9316 -66.9313 -66.9299 -66.9291
   -66.9059 -66.9051 -66.9047 -66.9034 -66.9024 -66.8998 -66.8970 -66.8968
   -66.8959 -66.8946 -66.8935 -66.8863 -66.8822 -66.8820 -66.8796 -66.8788
   -66.7264 -66.6973 -66.6971 -66.6967 -66.6906 -66.6898 -66.6895 -66.6740
   -66.6731 -66.6725 -66.6668 -66.6667 -66.6377 -66.6105 -66.6003 -66.5976
   -66.5917 -66.5863 -66.5628 -66.5620 -66.5606 -66.5565 -66.5491 -66.5490
   -38.7845 -38.7585 -38.7576 -38.7531 -38.6553 -38.6547 -38.6544 -38.6160
   -38.6156 -38.5994 -38.5994 -38.5973 -38.5758 -38.5452 -38.5448 -38.5399
   -38.5220 -38.5208 -38.5188 -38.4975 -38.4890 -38.4889 -38.4570 -38.4566
   -38.4525 -38.4520 -38.4515 -38.4442 -38.3697 -38.3584 -38.3530 -38.3528
   -38.3509 -38.3475 -38.3473 -38.3468 -38.3433 -38.3432 -38.3075 -38.3072
   -38.3070 -38.2907 -38.2904 -38.2901 -38.2763 -38.2468 -38.2468 -38.2455
   -38.2449 -38.2429 -38.2420 -38.2408 -38.2408 -38.2364 -38.2225 -38.2224
   -38.2178 -38.2168 -38.2131 -38.2102 -38.2092 -38.2089 -38.2085 -38.2065
   -38.1970 -38.1953 -38.1952 -38.1898 -38.1824 -38.1806 -38.1779 -38.1449
   -38.1381 -38.1335 -38.1292 -38.1255 -38.1216 -38.1203 -38.1195 -38.1160
   -38.1069 -38.0971 -38.0964 -38.0920 -38.0794 -38.0737 -38.0733 -38.0704
   -38.0675 -38.0578 -38.0571 -38.0342 -38.0324 -38.0283 -38.0281 -38.0247
   -38.0187 -38.0177 -38.0113 -38.0086 -38.0072 -37.9831 -37.9824 -37.9823
   -37.9496 -37.9480 -37.9415 -37.9410 -37.9401 -37.9327 -37.9285 -37.9247
   -37.9241 -37.9234 -37.9211 -37.9061 -37.9050 -37.8976 -37.8964 -37.8899
   -37.8890 -37.8789 -37.8788 -37.8782 -37.8451 -37.8446 -37.8442 -37.8440
   -37.8431 -37.8426 -37.8146 -37.8146 -37.8072 -37.7933 -37.7856 -37.7855
   -37.6819 -37.6780 -37.6700 -37.6555 -37.6517 -37.6492 -37.6337 -37.6292
   -12.4813 -12.0124 -11.7788 -11.7781 -11.7760 -11.6335 -11.6325 -11.6251
   -11.6066 -11.6066 -11.6018 -11.3250 -11.3241 -11.3190 -11.2466 -11.2148
   -11.2142 -11.2098 -10.9836 -10.9602  -9.3482  -8.6903  -8.6903  -8.6902
    -8.6326  -2.9861  -2.9858  -2.9819  -2.7724  -2.7405  -2.7405  -2.5511
    -2.5453  -2.5449  -2.5442  -2.5248  -2.5221  -2.4598  -2.4055  -2.3877
    -2.3847  -2.3077  -2.3013  -2.2973  -2.2219  -2.2217  -1.9198  -1.8617
    -1.8361  -1.7354  -1.7342  -1.6604  -1.5590  -1.5554  -1.5516  -1.4666
    -1.4608  -1.4429  -1.4037  -1.4019  -1.3981  -1.3194  -1.3189  -1.3162
    -1.2975  -1.2637  -1.2615  -1.2071  -1.1992  -1.1955  -1.0678  -1.0652
    -0.9640  -0.8989  -0.8949  -0.8881  -0.8784  -0.8755  -0.8346  -0.8060
    -0.8050  -0.8012  -0.6659  -0.6629  -0.6537  -0.4165  -0.4130  -0.4125
     0.6768   1.2456   1.2460   1.2462   1.4886   1.4887   1.4888   1.5635
     1.5824   1.5825   1.6032   1.6036   1.6045   1.6250   1.6252   1.6257
     1.7934   1.8001   1.8011   2.0852   2.0860   2.0878   2.2120   2.2139
     2.2166   2.2436   2.3576   2.3719   2.3719   2.4588   2.4590   2.4658
     2.4736   2.4739   2.4755   2.5357   2.5375   2.5385   2.5546   2.7164
     2.7168   2.8158   2.8214   2.8236   3.1754   3.1776   3.2175   3.3083
     3.3083   3.3709   3.3726   3.3744   3.3852   3.3859   3.3905   3.5010
     3.5033   3.5182   3.5464   3.5685   3.5784   3.6669   3.6885   3.6899
     3.7040   3.7149   3.7150   3.7475   3.7479   3.7522   3.7603   3.8432
     3.8512   3.8530   3.9981   4.0005   4.0555   4.1534   4.1636   4.1665
     4.1787   4.1807   4.3052   4.3245   4.3315   4.3336   4.3676   4.3713
     4.3825   4.4330   4.4418   4.4421   4.4543   4.5043   4.5178   4.5191
     4.5718   4.5722   4.6417   4.7232   4.7262   4.7564   4.7587   4.8088
     4.8117   4.8589   4.8610   4.8823   4.9022   4.9168   4.9221   4.9755
     4.9761   4.9866   5.0388   5.0389   5.1107   5.1552   5.1636   5.1687
     5.2215   5.2528   5.3893   5.4143   5.4159   5.4168   5.5243   5.5265
     5.5748   5.5793   5.5813   5.5879   5.5945   5.5986   5.7100   5.7207
     5.7229   5.7302   5.7379   5.7406   5.7476   5.7528   5.7709   5.7942
     5.8341   5.8633   5.8824   5.8892   5.8902   5.8926   5.8933   5.9190
     5.9310   5.9553   6.0110   6.0144   6.0201   6.0273   6.0334   6.0337
     6.0400   6.0625   6.0908   6.0935   6.0947   6.1252   6.1510   6.1525
     6.2269   6.2287   6.2371   6.2396   6.2396   6.2850   6.2861   6.2953
     6.3010   6.3054   6.3400   6.3417   6.3466   6.3837   6.3905   6.4312
     6.5540   6.5957   6.5969   6.5970   6.6487   6.6549   6.6740   6.6829
     6.6878   6.7389   6.7413   6.7435   6.7465   6.7518   6.8043   6.8590

          k = 0.0000 0.2887 0.0000 (108355 PWs)   bands (ev):

   -66.9766 -66.9525 -66.9437 -66.9424 -66.9268 -66.9255 -66.9243 -66.9185
   -66.9102 -66.9083 -66.9075 -66.9055 -66.9036 -66.9025 -66.8971 -66.8961
   -66.8942 -66.8920 -66.8898 -66.8869 -66.8831 -66.8820 -66.8802 -66.8794
   -66.7237 -66.7060 -66.6997 -66.6988 -66.6866 -66.6855 -66.6818 -66.6754
   -66.6744 -66.6723 -66.6683 -66.6678 -66.6369 -66.6109 -66.6028 -66.5990
   -66.5901 -66.5846 -66.5622 -66.5611 -66.5598 -66.5569 -66.5505 -66.5493
   -38.7812 -38.7615 -38.7541 -38.7501 -38.6508 -38.6499 -38.6485 -38.6237
   -38.6148 -38.6061 -38.6054 -38.6023 -38.5772 -38.5614 -38.5485 -38.5441
   -38.5180 -38.5140 -38.5054 -38.4990 -38.4911 -38.4900 -38.4847 -38.4623
   -38.4464 -38.4458 -38.4442 -38.4228 -38.3634 -38.3624 -38.3572 -38.3522
   -38.3494 -38.3433 -38.3419 -38.3410 -38.3362 -38.3289 -38.3125 -38.3093
   -38.3075 -38.2993 -38.2940 -38.2924 -38.2733 -38.2626 -38.2575 -38.2473
   -38.2464 -38.2449 -38.2445 -38.2444 -38.2402 -38.2379 -38.2317 -38.2276
   -38.2252 -38.2239 -38.2191 -38.2125 -38.2120 -38.2072 -38.1983 -38.1950
   -38.1926 -38.1899 -38.1881 -38.1782 -38.1732 -38.1711 -38.1694 -38.1477
   -38.1420 -38.1364 -38.1335 -38.1326 -38.1283 -38.1203 -38.1196 -38.1092
   -38.1071 -38.1015 -38.1000 -38.0870 -38.0849 -38.0778 -38.0734 -38.0684
   -38.0635 -38.0614 -38.0506 -38.0379 -38.0333 -38.0295 -38.0270 -38.0201
   -38.0172 -38.0103 -38.0069 -38.0033 -38.0026 -37.9888 -37.9873 -37.9846
   -37.9534 -37.9491 -37.9467 -37.9389 -37.9384 -37.9357 -37.9269 -37.9241
   -37.9219 -37.9205 -37.9184 -37.9038 -37.9028 -37.8976 -37.8950 -37.8916
   -37.8901 -37.8813 -37.8808 -37.8771 -37.8509 -37.8470 -37.8468 -37.8386
   -37.8373 -37.8349 -37.8247 -37.8171 -37.8048 -37.7931 -37.7866 -37.7863
   -37.6790 -37.6756 -37.6674 -37.6559 -37.6525 -37.6468 -37.6406 -37.6316
   -12.4177 -11.9903 -11.9699 -11.8345 -11.8320 -11.7028 -11.6173 -11.6126
   -11.5414 -11.5380 -11.4600 -11.3164 -11.3118 -11.2656 -11.2471 -11.2441
   -11.2347 -11.1810 -11.0167 -10.9950  -9.3482  -8.6919  -8.6918  -8.6805
    -8.6397  -2.9557  -2.9510  -2.9122  -2.7986  -2.7289  -2.7150  -2.6981
    -2.6874  -2.6844  -2.5743  -2.5679  -2.4267  -2.3816  -2.3478  -2.3293
    -2.3271  -2.2768  -2.2229  -2.2027  -2.1880  -2.1441  -1.9773  -1.9091
    -1.8422  -1.8188  -1.7416  -1.7173  -1.6683  -1.5961  -1.5789  -1.5424
    -1.4590  -1.4549  -1.4027  -1.3973  -1.3666  -1.3553  -1.3349  -1.3009
    -1.2969  -1.2824  -1.2340  -1.2300  -1.2133  -1.1024  -1.0581  -1.0422
    -0.9952  -0.9353  -0.8858  -0.8711  -0.8690  -0.8168  -0.8128  -0.8099
    -0.7840  -0.7559  -0.6998  -0.6336  -0.6293  -0.4852  -0.4415  -0.4392
     0.7985   1.2075   1.2389   1.2393   1.4782   1.4784   1.4880   1.4906
     1.5551   1.5734   1.5744   1.5932   1.6542   1.6927   1.6958   1.7072
     1.8091   1.8122   1.8551   2.0941   2.0959   2.1373   2.1879   2.1912
     2.2434   2.2967   2.3279   2.3335   2.3564   2.4546   2.4575   2.4723
     2.4826   2.4849   2.5476   2.5762   2.5808   2.5971   2.6195   2.6490
     2.7519   2.8294   2.8326   2.8933   3.0505   3.0977   3.1609   3.2293
     3.2326   3.2633   3.2690   3.2986   3.3936   3.3958   3.4210   3.4275
     3.4294   3.4684   3.5467   3.6119   3.6292   3.6416   3.6682   3.7070
     3.7309   3.7417   3.7510   3.7622   3.8030   3.8122   3.8144   3.8968
     4.0000   4.0271   4.0439   4.0550   4.0623   4.0753   4.0896   4.1736
     4.2005   4.2121   4.2702   4.2751   4.3060   4.3239   4.3333   4.3389
     4.3603   4.3855   4.4043   4.4129   4.4346   4.4961   4.5163   4.5245
     4.5276   4.5934   4.6047   4.6757   4.7273   4.7506   4.7783   4.7976
     4.8099   4.8269   4.8669   4.8828   4.9295   4.9594   4.9689   4.9779
     5.0038   5.0132   5.0337   5.0908   5.1055   5.1628   5.1860   5.2116
     5.2255   5.2595   5.3237   5.3448   5.3570   5.3872   5.4298   5.4849
     5.4951   5.5016   5.5024   5.5501   5.5812   5.5901   5.5999   5.6039
     5.6194   5.7100   5.7197   5.7493   5.7780   5.7836   5.7847   5.7930
     5.8292   5.8394   5.8452   5.8646   5.8793   5.9117   5.9207   5.9259
     5.9319   5.9702   5.9793   5.9979   6.0016   6.0174   6.0444   6.0528
     6.0601   6.0704   6.0748   6.0780   6.0917   6.0968   6.1280   6.2067
     6.2333   6.2385   6.2573   6.2767   6.2825   6.2881   6.2939   6.3350
     6.3458   6.3513   6.3553   6.3983   6.4268   6.4351   6.4535   6.4853
     6.4950   6.5074   6.5661   6.5742   6.5818   6.5927   6.6781   6.6877
     6.6982   6.7212   6.7290   6.7527   6.7696   6.7880   6.8304   6.8391

          k = 0.0000-0.5774 0.0000 (108310 PWs)   bands (ev):

   -66.9668 -66.9668 -66.9459 -66.9445 -66.9205 -66.9201 -66.9172 -66.9168
   -66.9140 -66.9127 -66.9078 -66.9053 -66.9046 -66.9038 -66.9004 -66.8999
   -66.8903 -66.8894 -66.8879 -66.8857 -66.8849 -66.8818 -66.8814 -66.8803
   -66.7165 -66.7163 -66.7012 -66.7002 -66.6817 -66.6804 -66.6788 -66.6780
   -66.6739 -66.6729 -66.6704 -66.6700 -66.6360 -66.6113 -66.6050 -66.6000
   -66.5889 -66.5832 -66.5621 -66.5606 -66.5584 -66.5549 -66.5539 -66.5497
   -38.7730 -38.7708 -38.7498 -38.7461 -38.6454 -38.6409 -38.6394 -38.6375
   -38.6171 -38.6119 -38.6093 -38.6077 -38.5765 -38.5743 -38.5507 -38.5462
   -38.5150 -38.5093 -38.5042 -38.5026 -38.4986 -38.4945 -38.4780 -38.4743
   -38.4392 -38.4383 -38.4270 -38.4262 -38.3726 -38.3718 -38.3485 -38.3478
   -38.3421 -38.3414 -38.3333 -38.3327 -38.3226 -38.3205 -38.3106 -38.3097
   -38.3049 -38.3046 -38.2989 -38.2949 -38.2832 -38.2825 -38.2643 -38.2491
   -38.2487 -38.2481 -38.2450 -38.2445 -38.2441 -38.2402 -38.2383 -38.2304
   -38.2272 -38.2257 -38.2251 -38.2166 -38.2146 -38.2134 -38.1932 -38.1912
   -38.1849 -38.1753 -38.1724 -38.1675 -38.1631 -38.1625 -38.1609 -38.1585
   -38.1499 -38.1469 -38.1436 -38.1417 -38.1201 -38.1158 -38.1131 -38.1110
   -38.1082 -38.1078 -38.0951 -38.0937 -38.0897 -38.0833 -38.0772 -38.0691
   -38.0594 -38.0581 -38.0419 -38.0366 -38.0348 -38.0296 -38.0257 -38.0242
   -38.0169 -38.0144 -38.0044 -37.9994 -37.9971 -37.9925 -37.9750 -37.9713
   -37.9628 -37.9594 -37.9487 -37.9476 -37.9372 -37.9363 -37.9269 -37.9199
   -37.9192 -37.9169 -37.9138 -37.9106 -37.8991 -37.8960 -37.8924 -37.8922
   -37.8841 -37.8839 -37.8831 -37.8824 -37.8485 -37.8482 -37.8446 -37.8438
   -37.8346 -37.8332 -37.8248 -37.8244 -37.8023 -37.7917 -37.7889 -37.7874
   -37.6747 -37.6695 -37.6649 -37.6597 -37.6543 -37.6494 -37.6428 -37.6344
   -12.2415 -12.2396 -11.8693 -11.8668 -11.8567 -11.8525 -11.6249 -11.6205
   -11.4534 -11.4504 -11.3279 -11.3262 -11.3175 -11.3109 -11.2901 -11.2887
   -11.1100 -11.1056 -11.0879 -11.0875  -9.3483  -8.6935  -8.6934  -8.6588
    -8.6587  -2.9243  -2.9151  -2.8262  -2.8212  -2.7604  -2.7566  -2.7548
    -2.7500  -2.6310  -2.6284  -2.5138  -2.5109  -2.3647  -2.3476  -2.2940
    -2.2832  -2.2482  -2.2299  -2.1250  -2.1044  -2.0468  -2.0208  -1.9215
    -1.8567  -1.8312  -1.8048  -1.7842  -1.6684  -1.6595  -1.6134  -1.5901
    -1.5467  -1.5133  -1.4236  -1.4185  -1.4109  -1.3905  -1.2902  -1.2860
    -1.2449  -1.2433  -1.2295  -1.2239  -1.1098  -1.1082  -1.0315  -1.0292
    -1.0109  -1.0069  -0.8838  -0.8807  -0.8348  -0.8321  -0.8145  -0.8077
    -0.7140  -0.7105  -0.6498  -0.6490  -0.6029  -0.5993  -0.4651  -0.4630
     1.0408   1.0435   1.2268   1.2273   1.4565   1.4586   1.4785   1.4789
     1.5542   1.5544   1.5704   1.5708   1.7105   1.7133   1.7212   1.7278
     1.9467   1.9528   1.9560   1.9567   2.1280   2.1316   2.1646   2.1686
     2.2569   2.2598   2.3911   2.3932   2.4147   2.4152   2.4466   2.4471
     2.4843   2.4879   2.4959   2.5003   2.6033   2.6113   2.7782   2.7818
     2.8301   2.8344   2.8516   2.8565   3.0464   3.0510   3.0680   3.0712
     3.1392   3.1406   3.2360   3.2437   3.3572   3.3600   3.4186   3.4227
     3.4521   3.4556   3.5510   3.5526   3.6369   3.6561   3.6946   3.7021
     3.7619   3.7686   3.8411   3.8479   3.8934   3.9017   3.9333   3.9411
     3.9632   3.9729   3.9981   4.0166   4.0304   4.0373   4.1559   4.1623
     4.1823   4.1922   4.2729   4.2928   4.3153   4.3444   4.3538   4.3762
     4.3876   4.3894   4.4024   4.4152   4.4667   4.4911   4.5022   4.5056
     4.5125   4.5176   4.6280   4.6385   4.6516   4.6722   4.7088   4.7117
     4.7275   4.7297   4.8422   4.8634   5.0133   5.0143   5.0220   5.0239
     5.0300   5.0627   5.0953   5.1260   5.1464   5.1509   5.1650   5.1721
     5.2106   5.2224   5.2894   5.3544   5.3731   5.3760   5.3862   5.3901
     5.4640   5.4697   5.4922   5.5326   5.5526   5.5547   5.5941   5.6015
     5.6101   5.6294   5.6335   5.7162   5.7318   5.7416   5.7719   5.7799
     5.7905   5.7986   5.8223   5.8251   5.8778   5.8805   5.9032   5.9159
     5.9213   5.9306   5.9474   5.9490   5.9988   6.0155   6.0343   6.0377
     6.0638   6.0881   6.1005   6.1473   6.1788   6.1938   6.1995   6.2044
     6.2107   6.2180   6.2271   6.2373   6.2414   6.2487   6.3670   6.3739
     6.3776   6.3957   6.4210   6.4376   6.4564   6.4648   6.4746   6.4819
     6.4931   6.5075   6.5278   6.5318   6.6365   6.6439   6.6536   6.6580
     6.6832   6.6918   6.7435   6.7543   6.8788   6.8860   6.8870   6.9028

          k = 0.2500 0.1443 0.0000 (108355 PWs)   bands (ev):

   -66.9766 -66.9525 -66.9437 -66.9424 -66.9268 -66.9255 -66.9243 -66.9185
   -66.9102 -66.9083 -66.9075 -66.9055 -66.9036 -66.9025 -66.8971 -66.8961
   -66.8942 -66.8920 -66.8898 -66.8869 -66.8831 -66.8820 -66.8802 -66.8794
   -66.7237 -66.7060 -66.6997 -66.6988 -66.6866 -66.6855 -66.6818 -66.6754
   -66.6744 -66.6723 -66.6683 -66.6678 -66.6369 -66.6109 -66.6028 -66.5990
   -66.5901 -66.5846 -66.5622 -66.5611 -66.5598 -66.5569 -66.5505 -66.5493
   -38.7812 -38.7615 -38.7541 -38.7502 -38.6508 -38.6499 -38.6485 -38.6237
   -38.6148 -38.6061 -38.6054 -38.6023 -38.5772 -38.5614 -38.5485 -38.5441
   -38.5180 -38.5140 -38.5054 -38.4990 -38.4911 -38.4900 -38.4847 -38.4623
   -38.4464 -38.4458 -38.4442 -38.4228 -38.3634 -38.3624 -38.3572 -38.3522
   -38.3494 -38.3433 -38.3419 -38.3410 -38.3362 -38.3289 -38.3125 -38.3093
   -38.3075 -38.2993 -38.2940 -38.2924 -38.2733 -38.2626 -38.2575 -38.2473
   -38.2464 -38.2449 -38.2445 -38.2444 -38.2402 -38.2379 -38.2317 -38.2276
   -38.2252 -38.2239 -38.2191 -38.2125 -38.2120 -38.2072 -38.1983 -38.1950
   -38.1926 -38.1899 -38.1881 -38.1782 -38.1732 -38.1711 -38.1694 -38.1477
   -38.1420 -38.1364 -38.1335 -38.1326 -38.1283 -38.1203 -38.1196 -38.1092
   -38.1071 -38.1015 -38.1000 -38.0870 -38.0848 -38.0778 -38.0734 -38.0684
   -38.0635 -38.0614 -38.0506 -38.0379 -38.0333 -38.0295 -38.0270 -38.0201
   -38.0172 -38.0103 -38.0069 -38.0033 -38.0026 -37.9888 -37.9873 -37.9846
   -37.9534 -37.9491 -37.9467 -37.9389 -37.9384 -37.9357 -37.9269 -37.9241
   -37.9219 -37.9205 -37.9184 -37.9038 -37.9028 -37.8976 -37.8950 -37.8916
   -37.8901 -37.8813 -37.8808 -37.8771 -37.8509 -37.8470 -37.8468 -37.8386
   -37.8373 -37.8349 -37.8247 -37.8171 -37.8048 -37.7931 -37.7866 -37.7863
   -37.6790 -37.6756 -37.6674 -37.6559 -37.6525 -37.6468 -37.6406 -37.6316
   -12.4177 -11.9903 -11.9699 -11.8345 -11.8320 -11.7028 -11.6173 -11.6126
   -11.5414 -11.5379 -11.4600 -11.3164 -11.3118 -11.2656 -11.2471 -11.2441
   -11.2347 -11.1810 -11.0167 -10.9950  -9.3482  -8.6919  -8.6918  -8.6805
    -8.6397  -2.9557  -2.9510  -2.9122  -2.7986  -2.7289  -2.7150  -2.6981
    -2.6874  -2.6844  -2.5743  -2.5679  -2.4267  -2.3816  -2.3478  -2.3293
    -2.3271  -2.2768  -2.2229  -2.2027  -2.1880  -2.1441  -1.9773  -1.9091
    -1.8422  -1.8188  -1.7416  -1.7172  -1.6683  -1.5961  -1.5789  -1.5424
    -1.4590  -1.4549  -1.4027  -1.3973  -1.3666  -1.3553  -1.3349  -1.3009
    -1.2969  -1.2824  -1.2340  -1.2300  -1.2133  -1.1024  -1.0581  -1.0422
    -0.9952  -0.9353  -0.8858  -0.8711  -0.8690  -0.8168  -0.8128  -0.8099
    -0.7840  -0.7559  -0.6998  -0.6336  -0.6293  -0.4852  -0.4415  -0.4392
     0.7985   1.2075   1.2389   1.2394   1.4782   1.4784   1.4880   1.4906
     1.5551   1.5734   1.5744   1.5932   1.6542   1.6927   1.6958   1.7072
     1.8091   1.8122   1.8551   2.0941   2.0958   2.1373   2.1879   2.1912
     2.2434   2.2967   2.3279   2.3335   2.3564   2.4546   2.4575   2.4723
     2.4826   2.4849   2.5476   2.5762   2.5808   2.5971   2.6195   2.6490
     2.7519   2.8294   2.8326   2.8933   3.0505   3.0977   3.1609   3.2293
     3.2326   3.2633   3.2690   3.2986   3.3936   3.3958   3.4210   3.4275
     3.4294   3.4684   3.5467   3.6119   3.6292   3.6416   3.6682   3.7070
     3.7309   3.7417   3.7510   3.7622   3.8030   3.8122   3.8144   3.8968
     4.0000   4.0271   4.0439   4.0550   4.0623   4.0753   4.0896   4.1736
     4.2005   4.2121   4.2702   4.2751   4.3060   4.3239   4.3333   4.3389
     4.3603   4.3855   4.4043   4.4129   4.4346   4.4961   4.5163   4.5245
     4.5276   4.5934   4.6047   4.6757   4.7273   4.7506   4.7783   4.7976
     4.8099   4.8269   4.8669   4.8828   4.9295   4.9594   4.9689   4.9779
     5.0038   5.0132   5.0337   5.0908   5.1055   5.1628   5.1860   5.2116
     5.2255   5.2595   5.3237   5.3448   5.3570   5.3872   5.4298   5.4849
     5.4951   5.5016   5.5024   5.5501   5.5812   5.5901   5.5999   5.6039
     5.6194   5.7100   5.7197   5.7493   5.7780   5.7836   5.7847   5.7930
     5.8292   5.8394   5.8452   5.8646   5.8793   5.9117   5.9207   5.9259
     5.9319   5.9702   5.9793   5.9979   6.0016   6.0174   6.0444   6.0528
     6.0601   6.0704   6.0748   6.0780   6.0917   6.0968   6.1280   6.2067
     6.2333   6.2385   6.2573   6.2767   6.2825   6.2881   6.2939   6.3350
     6.3458   6.3513   6.3553   6.3983   6.4268   6.4351   6.4535   6.4853
     6.4950   6.5074   6.5661   6.5742   6.5818   6.5927   6.6781   6.6877
     6.6982   6.7212   6.7290   6.7525   6.7697   6.7881   6.8310   6.8386

          k = 0.2500 0.4330 0.0000 (108308 PWs)   bands (ev):

   -66.9700 -66.9582 -66.9577 -66.9341 -66.9262 -66.9222 -66.9163 -66.9143
   -66.9141 -66.9112 -66.9107 -66.9058 -66.9042 -66.9013 -66.9006 -66.8980
   -66.8940 -66.8897 -66.8864 -66.8862 -66.8839 -66.8822 -66.8812 -66.8805
   -66.7188 -66.7101 -66.7097 -66.6932 -66.6867 -66.6804 -66.6772 -66.6770
   -66.6731 -66.6731 -66.6709 -66.6702 -66.6360 -66.6100 -66.6076 -66.5982
   -66.5893 -66.5833 -66.5619 -66.5607 -66.5578 -66.5568 -66.5523 -66.5501
   -38.7746 -38.7634 -38.7615 -38.7400 -38.6456 -38.6439 -38.6379 -38.6344
   -38.6195 -38.6136 -38.6079 -38.6060 -38.5765 -38.5676 -38.5669 -38.5281
   -38.5218 -38.5104 -38.5085 -38.5031 -38.5023 -38.4863 -38.4824 -38.4697
   -38.4352 -38.4344 -38.4337 -38.4225 -38.3986 -38.3515 -38.3508 -38.3500
   -38.3414 -38.3385 -38.3296 -38.3259 -38.3258 -38.3199 -38.3198 -38.3111
   -38.3049 -38.2994 -38.2975 -38.2960 -38.2795 -38.2739 -38.2728 -38.2638
   -38.2499 -38.2492 -38.2459 -38.2415 -38.2383 -38.2353 -38.2315 -38.2310
   -38.2293 -38.2283 -38.2224 -38.2168 -38.2135 -38.2134 -38.2118 -38.1837
   -38.1788 -38.1774 -38.1722 -38.1665 -38.1655 -38.1616 -38.1593 -38.1540
   -38.1522 -38.1465 -38.1465 -38.1429 -38.1220 -38.1134 -38.1132 -38.1080
   -38.1042 -38.1025 -38.1013 -38.0979 -38.0916 -38.0877 -38.0780 -38.0636
   -38.0599 -38.0583 -38.0404 -38.0401 -38.0372 -38.0316 -38.0290 -38.0230
   -38.0170 -38.0055 -38.0048 -37.9996 -37.9944 -37.9848 -37.9830 -37.9766
   -37.9630 -37.9512 -37.9511 -37.9466 -37.9374 -37.9340 -37.9289 -37.9244
   -37.9213 -37.9159 -37.9145 -37.9100 -37.8989 -37.8945 -37.8927 -37.8907
   -37.8883 -37.8864 -37.8785 -37.8781 -37.8529 -37.8527 -37.8413 -37.8401
   -37.8386 -37.8292 -37.8289 -37.8214 -37.8025 -37.7917 -37.7883 -37.7878
   -37.6734 -37.6707 -37.6641 -37.6615 -37.6552 -37.6463 -37.6447 -37.6337
   -12.2974 -12.0844 -12.0833 -11.8912 -11.7574 -11.7546 -11.7059 -11.5398
   -11.5134 -11.4037 -11.3844 -11.3827 -11.3678 -11.3030 -11.1928 -11.1902
   -11.1685 -11.1673 -11.0801 -11.0599  -9.3483  -8.7021  -8.6747  -8.6746
    -8.6531  -2.9706  -2.8708  -2.8683  -2.8513  -2.7402  -2.7397  -2.6997
    -2.6611  -2.6100  -2.5974  -2.5759  -2.5708  -2.5302  -2.3485  -2.2168
    -2.2028  -2.1952  -2.1809  -2.1341  -2.1131  -2.0846  -2.0690  -1.9676
    -1.9070  -1.8652  -1.7986  -1.7485  -1.6765  -1.6514  -1.6145  -1.5481
    -1.4995  -1.4916  -1.4249  -1.4013  -1.3813  -1.3497  -1.3447  -1.3372
    -1.3200  -1.2827  -1.1673  -1.1645  -1.1230  -1.1211  -1.0967  -1.0544
    -0.9398  -0.9164  -0.9108  -0.8601  -0.8487  -0.8360  -0.8135  -0.7885
    -0.7849  -0.7338  -0.7256  -0.6416  -0.5439  -0.5330  -0.5296  -0.4358
     0.9758   1.1589   1.1594   1.2596   1.4440   1.4603   1.4611   1.4627
     1.5063   1.5874   1.5879   1.6150   1.6803   1.6993   1.7007   1.7582
     1.8768   1.9951   1.9965   2.0832   2.0842   2.1471   2.1496   2.2063
     2.2127   2.2739   2.2756   2.3079   2.3832   2.3891   2.4232   2.4240
     2.4751   2.5245   2.5901   2.6179   2.6180   2.7009   2.7011   2.8132
     2.8220   2.8234   2.8582   2.8601   2.9553   2.9635   2.9635   3.0291
     3.2118   3.2750   3.3203   3.3205   3.3637   3.3669   3.3739   3.4602
     3.4627   3.4645   3.4808   3.5904   3.6059   3.6102   3.6722   3.7339
     3.7436   3.7782   3.7854   3.8141   3.8181   3.8772   3.8986   3.9143
     4.0485   4.0501   4.0800   4.0805   4.0902   4.1052   4.1089   4.1453
     4.1631   4.1810   4.2281   4.2668   4.2676   4.3230   4.3253   4.3588
     4.3900   4.3949   4.4285   4.4378   4.4463   4.4592   4.4914   4.5005
     4.5899   4.5917   4.6161   4.6267   4.6268   4.6398   4.6849   4.7043
     4.7599   4.8875   4.8893   4.9120   4.9174   4.9288   4.9291   4.9374
     4.9841   5.0147   5.0641   5.0938   5.1507   5.1890   5.1904   5.1956
     5.2251   5.3049   5.3232   5.3436   5.3471   5.3756   5.4275   5.4565
     5.4619   5.4673   5.4852   5.5124   5.5241   5.5458   5.5986   5.6192
     5.6312   5.6461   5.6979   5.7385   5.7501   5.7610   5.7732   5.7741
     5.8016   5.8035   5.8095   5.8168   5.8344   5.8859   5.8950   5.9060
     5.9077   5.9232   5.9530   5.9653   5.9764   5.9985   6.0101   6.0508
     6.0669   6.0787   6.1014   6.1050   6.1227   6.1394   6.1418   6.2045
     6.2048   6.2129   6.2427   6.2468   6.2678   6.3043   6.3194   6.3423
     6.3711   6.3926   6.3996   6.4063   6.4585   6.4946   6.5018   6.5302
     6.5343   6.5380   6.5982   6.5994   6.6263   6.6482   6.6759   6.6994
     6.7030   6.7145   6.7505   6.7576   6.7872   6.8229   6.8837   6.8867

          k = 0.2500-0.4330 0.0000 (108308 PWs)   bands (ev):

   -66.9700 -66.9580 -66.9579 -66.9343 -66.9260 -66.9221 -66.9165 -66.9143
   -66.9138 -66.9112 -66.9107 -66.9052 -66.9049 -66.9018 -66.8999 -66.8980
   -66.8943 -66.8894 -66.8865 -66.8861 -66.8839 -66.8821 -66.8811 -66.8806
   -66.7188 -66.7100 -66.7098 -66.6933 -66.6866 -66.6804 -66.6773 -66.6769
   -66.6736 -66.6726 -66.6710 -66.6701 -66.6359 -66.6115 -66.6058 -66.5987
   -66.5886 -66.5839 -66.5621 -66.5613 -66.5578 -66.5553 -66.5528 -66.5502
   -38.7745 -38.7639 -38.7610 -38.7400 -38.6450 -38.6444 -38.6383 -38.6340
   -38.6190 -38.6137 -38.6078 -38.6068 -38.5768 -38.5675 -38.5665 -38.5276
   -38.5214 -38.5100 -38.5092 -38.5039 -38.5021 -38.4858 -38.4823 -38.4700
   -38.4356 -38.4344 -38.4334 -38.4224 -38.3987 -38.3512 -38.3508 -38.3502
   -38.3414 -38.3386 -38.3297 -38.3271 -38.3251 -38.3198 -38.3195 -38.3108
   -38.3048 -38.2990 -38.2973 -38.2962 -38.2802 -38.2738 -38.2728 -38.2638
   -38.2501 -38.2492 -38.2458 -38.2417 -38.2387 -38.2354 -38.2317 -38.2310
   -38.2290 -38.2278 -38.2223 -38.2175 -38.2140 -38.2129 -38.2117 -38.1836
   -38.1790 -38.1758 -38.1722 -38.1677 -38.1654 -38.1629 -38.1588 -38.1549
   -38.1519 -38.1463 -38.1446 -38.1434 -38.1207 -38.1141 -38.1123 -38.1082
   -38.1044 -38.1037 -38.1013 -38.0977 -38.0914 -38.0883 -38.0774 -38.0637
   -38.0596 -38.0585 -38.0409 -38.0397 -38.0364 -38.0312 -38.0291 -38.0237
   -38.0154 -38.0068 -38.0041 -37.9998 -37.9959 -37.9836 -37.9825 -37.9759
   -37.9638 -37.9529 -37.9504 -37.9466 -37.9379 -37.9331 -37.9287 -37.9240
   -37.9218 -37.9164 -37.9155 -37.9097 -37.8974 -37.8949 -37.8931 -37.8901
   -37.8884 -37.8863 -37.8787 -37.8779 -37.8533 -37.8521 -37.8412 -37.8402
   -37.8386 -37.8293 -37.8289 -37.8213 -37.8025 -37.7919 -37.7882 -37.7879
   -37.6757 -37.6711 -37.6636 -37.6592 -37.6528 -37.6469 -37.6446 -37.6357
   -12.2974 -12.0846 -12.0831 -11.8911 -11.7581 -11.7540 -11.7059 -11.5398
   -11.5134 -11.4038 -11.3844 -11.3828 -11.3679 -11.3029 -11.1940 -11.1890
   -11.1685 -11.1673 -11.0802 -11.0599  -9.3483  -8.7021  -8.6746  -8.6746
    -8.6530  -2.9715  -2.8715  -2.8668  -2.8507  -2.7403  -2.7373  -2.6987
    -2.6609  -2.6101  -2.5980  -2.5785  -2.5710  -2.5307  -2.3447  -2.2309
    -2.1995  -2.1950  -2.1787  -2.1301  -2.1103  -2.0809  -2.0674  -1.9805
    -1.8872  -1.8725  -1.8168  -1.7319  -1.6989  -1.6463  -1.6097  -1.5501
    -1.4993  -1.4875  -1.4255  -1.4013  -1.3811  -1.3522  -1.3418  -1.3355
    -1.3137  -1.2849  -1.1669  -1.1651  -1.1231  -1.1208  -1.0975  -1.0543
    -0.9408  -0.9144  -0.9125  -0.8609  -0.8483  -0.8359  -0.8121  -0.7884
    -0.7820  -0.7343  -0.7299  -0.6407  -0.5432  -0.5332  -0.5299  -0.4355
     0.9752   1.1586   1.1598   1.2595   1.4438   1.4601   1.4614   1.4628
     1.5063   1.5876   1.5881   1.6151   1.6803   1.6988   1.7012   1.7575
     1.8757   1.9948   1.9964   2.0833   2.0850   2.1470   2.1500   2.2061
     2.2140   2.2738   2.2754   2.3083   2.3833   2.3884   2.4236   2.4240
     2.4732   2.5242   2.5905   2.6170   2.6193   2.6989   2.7017   2.8155
     2.8208   2.8226   2.8565   2.8611   2.9592   2.9625   2.9642   3.0290
     3.2107   3.2732   3.3194   3.3255   3.3640   3.3665   3.3720   3.4594
     3.4612   3.4642   3.4814   3.5896   3.6079   3.6107   3.6720   3.7347
     3.7420   3.7805   3.7859   3.8141   3.8168   3.8748   3.8991   3.9112
     4.0339   4.0528   4.0804   4.0899   4.0964   4.1030   4.1126   4.1459
     4.1731   4.1985   4.2307   4.2616   4.2696   4.3260   4.3319   4.3476
     4.3711   4.3940   4.4137   4.4274   4.4543   4.4670   4.4899   4.5024
     4.5881   4.5921   4.6157   4.6223   4.6259   4.6358   4.6814   4.7043
     4.7599   4.8888   4.8904   4.9091   4.9117   4.9254   4.9371   4.9409
     4.9842   5.0206   5.0692   5.1019   5.1490   5.1800   5.1909   5.1995
     5.2294   5.3049   5.3221   5.3433   5.3583   5.3744   5.4185   5.4548
     5.4632   5.4667   5.4785   5.5103   5.5421   5.5478   5.5772   5.6151
     5.6274   5.6578   5.6797   5.7411   5.7566   5.7613   5.7689   5.7826
     5.7965   5.8035   5.8098   5.8188   5.8431   5.8862   5.9037   5.9064
     5.9125   5.9252   5.9379   5.9539   5.9738   5.9988   6.0087   6.0563
     6.0682   6.0782   6.0944   6.1064   6.1225   6.1391   6.1590   6.2032
     6.2107   6.2142   6.2387   6.2602   6.2689   6.3020   6.3180   6.3351
     6.3676   6.3854   6.4042   6.4247   6.4724   6.4894   6.4994   6.5292
     6.5325   6.5417   6.5947   6.5968   6.6253   6.6455   6.6794   6.6991
     6.7102   6.7210   6.7479   6.7564   6.7669   6.8276   6.8806   6.8917

          k = 0.2500-0.1443 0.0000 (108355 PWs)   bands (ev):

   -66.9766 -66.9525 -66.9434 -66.9429 -66.9268 -66.9254 -66.9241 -66.9186
   -66.9103 -66.9085 -66.9074 -66.9050 -66.9036 -66.9028 -66.8973 -66.8960
   -66.8940 -66.8923 -66.8896 -66.8868 -66.8833 -66.8819 -66.8801 -66.8794
   -66.7237 -66.7060 -66.6995 -66.6991 -66.6860 -66.6859 -66.6818 -66.6752
   -66.6748 -66.6722 -66.6684 -66.6678 -66.6368 -66.6116 -66.6011 -66.6000
   -66.5896 -66.5852 -66.5628 -66.5610 -66.5597 -66.5562 -66.5504 -66.5497
   -38.7812 -38.7617 -38.7535 -38.7506 -38.6505 -38.6501 -38.6486 -38.6233
   -38.6150 -38.6058 -38.6054 -38.6029 -38.5773 -38.5618 -38.5480 -38.5435
   -38.5177 -38.5144 -38.5056 -38.4992 -38.4910 -38.4898 -38.4845 -38.4626
   -38.4468 -38.4455 -38.4443 -38.4227 -38.3633 -38.3624 -38.3572 -38.3523
   -38.3496 -38.3434 -38.3418 -38.3410 -38.3360 -38.3288 -38.3121 -38.3091
   -38.3078 -38.2997 -38.2931 -38.2928 -38.2735 -38.2622 -38.2581 -38.2475
   -38.2463 -38.2449 -38.2448 -38.2445 -38.2398 -38.2388 -38.2316 -38.2280
   -38.2254 -38.2239 -38.2180 -38.2123 -38.2120 -38.2064 -38.1996 -38.1944
   -38.1928 -38.1899 -38.1887 -38.1774 -38.1730 -38.1713 -38.1700 -38.1484
   -38.1424 -38.1346 -38.1337 -38.1315 -38.1295 -38.1202 -38.1198 -38.1087
   -38.1075 -38.1013 -38.1010 -38.0863 -38.0814 -38.0794 -38.0758 -38.0688
   -38.0636 -38.0604 -38.0502 -38.0386 -38.0318 -38.0305 -38.0267 -38.0201
   -38.0171 -38.0095 -38.0078 -38.0027 -38.0020 -37.9895 -37.9876 -37.9847
   -37.9535 -37.9492 -37.9466 -37.9392 -37.9385 -37.9350 -37.9268 -37.9248
   -37.9224 -37.9202 -37.9191 -37.9039 -37.9019 -37.8967 -37.8958 -37.8919
   -37.8897 -37.8814 -37.8808 -37.8771 -37.8509 -37.8471 -37.8466 -37.8384
   -37.8377 -37.8349 -37.8247 -37.8172 -37.8048 -37.7932 -37.7867 -37.7863
   -37.6803 -37.6752 -37.6678 -37.6528 -37.6508 -37.6500 -37.6372 -37.6351
   -12.4176 -11.9902 -11.9699 -11.8341 -11.8325 -11.7027 -11.6168 -11.6132
   -11.5410 -11.5384 -11.4600 -11.3157 -11.3127 -11.2655 -11.2467 -11.2448
   -11.2344 -11.1808 -11.0167 -10.9950  -9.3482  -8.6919  -8.6918  -8.6805
    -8.6397  -2.9566  -2.9522  -2.9102  -2.7975  -2.7265  -2.7152  -2.6959
    -2.6903  -2.6840  -2.5746  -2.5671  -2.4346  -2.3817  -2.3436  -2.3338
    -2.3279  -2.2711  -2.2237  -2.2067  -2.1838  -2.1393  -1.9723  -1.8966
    -1.8714  -1.8213  -1.7430  -1.7211  -1.6633  -1.5958  -1.5747  -1.5388
    -1.4601  -1.4534  -1.4043  -1.3973  -1.3690  -1.3532  -1.3368  -1.2998
    -1.2984  -1.2762  -1.2351  -1.2271  -1.2146  -1.1016  -1.0600  -1.0405
    -0.9955  -0.9361  -0.8872  -0.8740  -0.8657  -0.8143  -0.8131  -0.8081
    -0.7840  -0.7561  -0.7042  -0.6328  -0.6279  -0.4857  -0.4407  -0.4393
     0.7981   1.2074   1.2390   1.2392   1.4783   1.4784   1.4878   1.4906
     1.5557   1.5733   1.5743   1.5932   1.6542   1.6927   1.6951   1.7075
     1.8072   1.8126   1.8553   2.0935   2.0949   2.1396   2.1882   2.1909
     2.2435   2.2953   2.3299   2.3336   2.3561   2.4542   2.4568   2.4726
     2.4838   2.4847   2.5490   2.5769   2.5805   2.5950   2.6194   2.6478
     2.7516   2.8299   2.8303   2.8957   3.0512   3.0973   3.1621   3.2281
     3.2326   3.2632   3.2689   3.2964   3.3944   3.3976   3.4189   3.4277
     3.4299   3.4687   3.5456   3.6137   3.6276   3.6408   3.6694   3.7169
     3.7287   3.7355   3.7499   3.7615   3.8060   3.8120   3.8148   3.8934
     4.0148   4.0224   4.0395   4.0564   4.0631   4.0724   4.0904   4.1742
     4.2040   4.2134   4.2677   4.2794   4.3095   4.3138   4.3334   4.3429
     4.3581   4.3864   4.4072   4.4158   4.4308   4.4902   4.5110   4.5263
     4.5310   4.5966   4.6036   4.6695   4.7118   4.7612   4.7811   4.7891
     4.8116   4.8219   4.8659   4.8779   4.9228   4.9493   4.9709   4.9741
     5.0065   5.0284   5.0375   5.0897   5.1335   5.1702   5.1761   5.2104
     5.2262   5.2528   5.3262   5.3369   5.3704   5.3846   5.4308   5.4818
     5.4969   5.4999   5.5008   5.5475   5.5840   5.5905   5.5938   5.6043
     5.6112   5.6849   5.7314   5.7723   5.7765   5.7888   5.7899   5.7946
     5.8161   5.8413   5.8516   5.8583   5.8722   5.9178   5.9212   5.9219
     5.9351   5.9737   5.9801   5.9968   6.0054   6.0206   6.0434   6.0488
     6.0583   6.0649   6.0755   6.0840   6.0916   6.0957   6.1261   6.2144
     6.2320   6.2392   6.2570   6.2801   6.2845   6.2858   6.2899   6.3435
     6.3448   6.3501   6.3586   6.4019   6.4275   6.4337   6.4375   6.4871
     6.4967   6.5141   6.5678   6.5722   6.5833   6.5888   6.6795   6.6868
     6.6985   6.7227   6.7291   6.7464   6.7679   6.8046   6.8311   6.8346

          k =-0.5000-0.2887 0.0000 (108310 PWs)   bands (ev):

   -66.9668 -66.9668 -66.9459 -66.9445 -66.9205 -66.9201 -66.9172 -66.9168
   -66.9140 -66.9127 -66.9078 -66.9053 -66.9046 -66.9038 -66.9004 -66.8999
   -66.8903 -66.8894 -66.8879 -66.8857 -66.8849 -66.8818 -66.8813 -66.8803
   -66.7165 -66.7163 -66.7012 -66.7002 -66.6817 -66.6804 -66.6788 -66.6780
   -66.6739 -66.6729 -66.6704 -66.6700 -66.6360 -66.6113 -66.6050 -66.6000
   -66.5889 -66.5832 -66.5621 -66.5606 -66.5584 -66.5549 -66.5539 -66.5497
   -38.7730 -38.7708 -38.7498 -38.7461 -38.6454 -38.6409 -38.6394 -38.6375
   -38.6171 -38.6119 -38.6093 -38.6077 -38.5765 -38.5743 -38.5507 -38.5462
   -38.5150 -38.5093 -38.5042 -38.5026 -38.4986 -38.4945 -38.4780 -38.4743
   -38.4392 -38.4383 -38.4270 -38.4262 -38.3726 -38.3718 -38.3485 -38.3478
   -38.3421 -38.3414 -38.3333 -38.3327 -38.3226 -38.3205 -38.3106 -38.3097
   -38.3049 -38.3046 -38.2989 -38.2949 -38.2832 -38.2825 -38.2643 -38.2491
   -38.2487 -38.2481 -38.2450 -38.2445 -38.2441 -38.2402 -38.2383 -38.2304
   -38.2272 -38.2257 -38.2251 -38.2166 -38.2146 -38.2134 -38.1932 -38.1912
   -38.1849 -38.1753 -38.1724 -38.1675 -38.1631 -38.1625 -38.1609 -38.1585
   -38.1499 -38.1469 -38.1436 -38.1417 -38.1201 -38.1158 -38.1131 -38.1110
   -38.1081 -38.1078 -38.0951 -38.0937 -38.0897 -38.0833 -38.0772 -38.0691
   -38.0594 -38.0581 -38.0419 -38.0366 -38.0348 -38.0296 -38.0257 -38.0242
   -38.0169 -38.0144 -38.0044 -37.9994 -37.9971 -37.9925 -37.9750 -37.9713
   -37.9628 -37.9594 -37.9487 -37.9476 -37.9372 -37.9363 -37.9269 -37.9199
   -37.9192 -37.9169 -37.9138 -37.9106 -37.8991 -37.8960 -37.8924 -37.8922
   -37.8841 -37.8839 -37.8831 -37.8824 -37.8485 -37.8482 -37.8446 -37.8438
   -37.8346 -37.8332 -37.8248 -37.8244 -37.8023 -37.7917 -37.7889 -37.7874
   -37.6747 -37.6695 -37.6649 -37.6597 -37.6543 -37.6493 -37.6428 -37.6344
   -12.2415 -12.2396 -11.8693 -11.8668 -11.8567 -11.8525 -11.6249 -11.6205
   -11.4534 -11.4504 -11.3279 -11.3262 -11.3175 -11.3109 -11.2901 -11.2887
   -11.1100 -11.1056 -11.0879 -11.0875  -9.3483  -8.6935  -8.6934  -8.6588
    -8.6587  -2.9243  -2.9151  -2.8262  -2.8212  -2.7604  -2.7566  -2.7548
    -2.7500  -2.6310  -2.6284  -2.5138  -2.5109  -2.3647  -2.3476  -2.2940
    -2.2832  -2.2482  -2.2299  -2.1250  -2.1044  -2.0468  -2.0208  -1.9216
    -1.8567  -1.8311  -1.8048  -1.7842  -1.6684  -1.6595  -1.6134  -1.5901
    -1.5467  -1.5133  -1.4236  -1.4185  -1.4109  -1.3905  -1.2902  -1.2860
    -1.2449  -1.2433  -1.2295  -1.2239  -1.1098  -1.1082  -1.0315  -1.0292
    -1.0109  -1.0069  -0.8838  -0.8807  -0.8348  -0.8321  -0.8145  -0.8077
    -0.7140  -0.7105  -0.6498  -0.6490  -0.6029  -0.5993  -0.4651  -0.4630
     1.0408   1.0435   1.2268   1.2273   1.4565   1.4586   1.4785   1.4789
     1.5542   1.5544   1.5704   1.5708   1.7105   1.7133   1.7212   1.7278
     1.9467   1.9528   1.9560   1.9567   2.1280   2.1316   2.1646   2.1686
     2.2569   2.2598   2.3911   2.3932   2.4147   2.4152   2.4466   2.4471
     2.4843   2.4879   2.4959   2.5003   2.6033   2.6113   2.7782   2.7818
     2.8301   2.8344   2.8515   2.8565   3.0464   3.0510   3.0680   3.0712
     3.1392   3.1406   3.2360   3.2437   3.3572   3.3600   3.4186   3.4227
     3.4521   3.4556   3.5510   3.5526   3.6369   3.6561   3.6946   3.7021
     3.7619   3.7686   3.8410   3.8479   3.8934   3.9017   3.9333   3.9411
     3.9632   3.9729   3.9981   4.0166   4.0304   4.0373   4.1559   4.1623
     4.1823   4.1922   4.2729   4.2928   4.3154   4.3444   4.3538   4.3762
     4.3876   4.3894   4.4024   4.4152   4.4667   4.4911   4.5022   4.5056
     4.5125   4.5176   4.6280   4.6385   4.6516   4.6722   4.7088   4.7117
     4.7275   4.7297   4.8422   4.8634   5.0133   5.0143   5.0220   5.0239
     5.0300   5.0627   5.0953   5.1260   5.1464   5.1509   5.1650   5.1721
     5.2106   5.2224   5.2894   5.3544   5.3731   5.3760   5.3862   5.3901
     5.4640   5.4697   5.4922   5.5326   5.5526   5.5547   5.5941   5.6015
     5.6101   5.6294   5.6335   5.7162   5.7318   5.7416   5.7719   5.7799
     5.7905   5.7986   5.8223   5.8251   5.8778   5.8805   5.9032   5.9159
     5.9213   5.9306   5.9474   5.9490   5.9988   6.0155   6.0343   6.0377
     6.0638   6.0881   6.1005   6.1473   6.1788   6.1938   6.1995   6.2044
     6.2107   6.2180   6.2271   6.2373   6.2414   6.2487   6.3669   6.3739
     6.3776   6.3957   6.4210   6.4376   6.4564   6.4647   6.4746   6.4818
     6.4931   6.5075   6.5278   6.5318   6.6365   6.6439   6.6536   6.6579
     6.6832   6.6918   6.7435   6.7543   6.8786   6.8861   6.8867   6.9023

          k =-0.5000 0.0000 0.0000 (108308 PWs)   bands (ev):

   -66.9700 -66.9580 -66.9579 -66.9343 -66.9260 -66.9221 -66.9165 -66.9143
   -66.9138 -66.9112 -66.9107 -66.9052 -66.9049 -66.9018 -66.8999 -66.8980
   -66.8943 -66.8894 -66.8865 -66.8861 -66.8839 -66.8821 -66.8811 -66.8806
   -66.7188 -66.7100 -66.7098 -66.6933 -66.6866 -66.6804 -66.6773 -66.6769
   -66.6736 -66.6726 -66.6710 -66.6701 -66.6359 -66.6115 -66.6058 -66.5987
   -66.5886 -66.5839 -66.5621 -66.5613 -66.5578 -66.5553 -66.5528 -66.5502
   -38.7745 -38.7639 -38.7610 -38.7400 -38.6450 -38.6444 -38.6383 -38.6340
   -38.6190 -38.6137 -38.6078 -38.6068 -38.5768 -38.5675 -38.5665 -38.5276
   -38.5214 -38.5100 -38.5092 -38.5039 -38.5021 -38.4858 -38.4823 -38.4700
   -38.4356 -38.4344 -38.4334 -38.4224 -38.3987 -38.3512 -38.3508 -38.3502
   -38.3414 -38.3386 -38.3297 -38.3271 -38.3251 -38.3198 -38.3195 -38.3108
   -38.3048 -38.2990 -38.2973 -38.2962 -38.2802 -38.2738 -38.2728 -38.2638
   -38.2501 -38.2492 -38.2458 -38.2417 -38.2387 -38.2354 -38.2317 -38.2310
   -38.2290 -38.2278 -38.2223 -38.2175 -38.2140 -38.2129 -38.2117 -38.1836
   -38.1790 -38.1758 -38.1722 -38.1677 -38.1654 -38.1629 -38.1588 -38.1549
   -38.1519 -38.1463 -38.1446 -38.1434 -38.1207 -38.1141 -38.1123 -38.1082
   -38.1044 -38.1037 -38.1013 -38.0977 -38.0914 -38.0883 -38.0774 -38.0637
   -38.0596 -38.0585 -38.0409 -38.0397 -38.0364 -38.0312 -38.0291 -38.0237
   -38.0154 -38.0068 -38.0041 -37.9998 -37.9959 -37.9836 -37.9825 -37.9759
   -37.9638 -37.9529 -37.9504 -37.9466 -37.9379 -37.9331 -37.9287 -37.9240
   -37.9218 -37.9164 -37.9155 -37.9097 -37.8974 -37.8949 -37.8931 -37.8901
   -37.8884 -37.8863 -37.8787 -37.8779 -37.8533 -37.8521 -37.8412 -37.8402
   -37.8386 -37.8293 -37.8289 -37.8213 -37.8025 -37.7919 -37.7882 -37.7879
   -37.6757 -37.6711 -37.6636 -37.6592 -37.6528 -37.6469 -37.6446 -37.6357
   -12.2974 -12.0846 -12.0831 -11.8911 -11.7581 -11.7540 -11.7059 -11.5398
   -11.5134 -11.4038 -11.3844 -11.3828 -11.3679 -11.3029 -11.1940 -11.1890
   -11.1685 -11.1673 -11.0802 -11.0599  -9.3483  -8.7021  -8.6747  -8.6746
    -8.6530  -2.9715  -2.8715  -2.8668  -2.8507  -2.7403  -2.7373  -2.6987
    -2.6609  -2.6101  -2.5980  -2.5785  -2.5710  -2.5307  -2.3447  -2.2309
    -2.1995  -2.1950  -2.1787  -2.1301  -2.1103  -2.0809  -2.0674  -1.9805
    -1.8872  -1.8725  -1.8167  -1.7319  -1.6989  -1.6463  -1.6097  -1.5501
    -1.4993  -1.4875  -1.4255  -1.4013  -1.3811  -1.3522  -1.3418  -1.3355
    -1.3137  -1.2849  -1.1669  -1.1651  -1.1231  -1.1208  -1.0975  -1.0543
    -0.9408  -0.9144  -0.9125  -0.8609  -0.8483  -0.8359  -0.8121  -0.7884
    -0.7820  -0.7343  -0.7299  -0.6407  -0.5432  -0.5332  -0.5299  -0.4355
     0.9752   1.1586   1.1598   1.2595   1.4438   1.4601   1.4614   1.4628
     1.5063   1.5876   1.5881   1.6151   1.6803   1.6988   1.7012   1.7575
     1.8757   1.9948   1.9964   2.0833   2.0850   2.1471   2.1500   2.2061
     2.2140   2.2738   2.2754   2.3083   2.3833   2.3884   2.4236   2.4240
     2.4732   2.5242   2.5905   2.6170   2.6193   2.6989   2.7017   2.8155
     2.8208   2.8226   2.8565   2.8611   2.9592   2.9625   2.9642   3.0290
     3.2107   3.2732   3.3194   3.3255   3.3640   3.3665   3.3720   3.4594
     3.4612   3.4642   3.4814   3.5896   3.6079   3.6107   3.6720   3.7347
     3.7420   3.7805   3.7859   3.8141   3.8168   3.8748   3.8991   3.9112
     4.0339   4.0528   4.0804   4.0899   4.0964   4.1030   4.1126   4.1459
     4.1731   4.1985   4.2307   4.2616   4.2696   4.3260   4.3319   4.3476
     4.3711   4.3940   4.4137   4.4274   4.4543   4.4670   4.4899   4.5024
     4.5881   4.5921   4.6157   4.6223   4.6259   4.6358   4.6814   4.7043
     4.7599   4.8888   4.8904   4.9091   4.9117   4.9254   4.9371   4.9409
     4.9842   5.0206   5.0692   5.1019   5.1490   5.1800   5.1909   5.1995
     5.2294   5.3049   5.3221   5.3433   5.3583   5.3744   5.4185   5.4548
     5.4632   5.4667   5.4785   5.5103   5.5421   5.5478   5.5772   5.6151
     5.6274   5.6578   5.6797   5.7411   5.7566   5.7613   5.7689   5.7826
     5.7965   5.8035   5.8098   5.8188   5.8431   5.8862   5.9037   5.9064
[...]
     6.7825   6.8306   6.8372   6.8497   6.8774   6.9149   6.9726   7.0011

          k =-0.5000-0.8660 0.0000 (108310 PWs)   bands (ev):

   -66.8955 -66.8922 -66.8749 -66.8714 -66.8508 -66.8463 -66.8454 -66.8439
   -66.8417 -66.8400 -66.8377 -66.8324 -66.8314 -66.8302 -66.8294 -66.8256
   -66.8168 -66.8100 -66.8090 -66.8075 -66.8029 -66.8009 -66.7999 -66.7915
   -66.6516 -66.6508 -66.6386 -66.6381 -66.6073 -66.6042 -66.6021 -66.6018
   -66.5996 -66.5992 -66.5961 -66.5938 -66.5651 -66.5357 -66.5267 -66.5229
   -66.5175 -66.4915 -66.4797 -66.4724 -66.4693 -66.4675 -66.4662 -66.4633
   -38.6900 -38.6839 -38.6668 -38.6560 -38.5635 -38.5584 -38.5577 -38.5568
   -38.5445 -38.5355 -38.5325 -38.5312 -38.5014 -38.4971 -38.4710 -38.4635
   -38.4453 -38.4384 -38.4346 -38.4334 -38.4301 -38.4294 -38.4111 -38.4109
   -38.3625 -38.3581 -38.3562 -38.3524 -38.3505 -38.3493 -38.3316 -38.3286
   -38.2984 -38.2956 -38.2603 -38.2580 -38.2530 -38.2497 -38.2375 -38.2336
   -38.2314 -38.2270 -38.2251 -38.2220 -38.2083 -38.2074 -38.1936 -38.1929
   -38.1919 -38.1877 -38.1855 -38.1823 -38.1716 -38.1711 -38.1686 -38.1686
   -38.1625 -38.1565 -38.1528 -38.1490 -38.1482 -38.1436 -38.1220 -38.1168
   -38.1110 -38.1083 -38.1048 -38.1033 -38.0944 -38.0901 -38.0891 -38.0833
   -38.0821 -38.0729 -38.0694 -38.0625 -38.0494 -38.0442 -38.0403 -38.0389
   -38.0328 -38.0270 -38.0254 -38.0213 -38.0191 -38.0068 -38.0046 -38.0017
   -37.9939 -37.9917 -37.9544 -37.9522 -37.9515 -37.9417 -37.9395 -37.9351
   -37.9256 -37.9212 -37.9153 -37.9138 -37.9114 -37.9045 -37.8980 -37.8878
   -37.8842 -37.8703 -37.8671 -37.8596 -37.8488 -37.8467 -37.8381 -37.8376
   -37.8370 -37.8329 -37.8285 -37.8260 -37.8198 -37.8155 -37.8137 -37.8118
   -37.8059 -37.8056 -37.8030 -37.7968 -37.7712 -37.7702 -37.7639 -37.7617
   -37.7571 -37.7539 -37.7449 -37.7435 -37.7258 -37.7227 -37.7121 -37.7060
   -37.6243 -37.5878 -37.5692 -37.5587 -37.5577 -37.5532 -37.5525 -37.5406
   -12.1169 -12.1154 -11.7524 -11.7384 -11.7319 -11.7312 -11.4915 -11.4750
   -11.3293 -11.3193 -11.2400 -11.2162 -11.2087 -11.1707 -11.1186 -11.1176
   -10.9854 -10.9623 -10.9053 -10.9052  -9.4079  -9.1433  -9.1385  -9.0806
    -9.0759  -2.8023  -2.7972  -2.7727  -2.6998  -2.6902  -2.6432  -2.6256
    -2.6138  -2.6080  -2.5013  -2.4665  -2.3871  -2.3699  -2.2277  -2.2216
    -2.1636  -2.1318  -2.1148  -2.1056  -2.0436  -1.9537  -1.9485  -1.9067
    -1.8568  -1.7002  -1.6796  -1.5970  -1.5752  -1.5148  -1.4908  -1.4527
    -1.4217  -1.3153  -1.2891  -1.2859  -1.2706  -1.2477  -1.1808  -1.1350
    -1.1109  -1.0875  -1.0869  -1.0810  -0.9942  -0.9588  -0.9436  -0.8916
    -0.8727  -0.8247  -0.7783  -0.7474  -0.7003  -0.6909  -0.6780  -0.6548
    -0.6012  -0.5903  -0.5231  -0.4849  -0.4599  -0.4060  -0.3012  -0.2810
     0.8737   0.8760   0.9196   0.9244   1.1687   1.1750   1.1822   1.1900
     1.1992   1.2026   1.2462   1.2474   1.4794   1.4944   1.7264   1.7452
     2.0006   2.0148   2.0199   2.0511   2.1279   2.1419   2.1594   2.1725
     2.3014   2.3034   2.4696   2.4860   2.4950   2.4998   2.5309   2.5338
     2.5785   2.5837   2.5894   2.5941   2.6983   2.7210   2.8319   2.8415
     2.8584   2.8758   2.9233   2.9241   3.1183   3.1299   3.1347   3.1486
     3.1983   3.2042   3.3054   3.3256   3.4288   3.4318   3.4703   3.4922
     3.5301   3.5345   3.6138   3.6181   3.7019   3.7078   3.7700   3.7734
     3.8275   3.8276   3.8707   3.8881   3.9487   4.0018   4.0095   4.0193
     4.0435   4.0445   4.0594   4.0772   4.0827   4.1223   4.1941   4.2282
     4.2443   4.2547   4.3196   4.3497   4.3504   4.3790   4.4158   4.4302
     4.4487   4.4664   4.4751   4.4905   4.5109   4.5365   4.5468   4.5669
     4.5765   4.6074   4.6955   4.7021   4.7140   4.7471   4.7508   4.7662
     4.7802   4.8067   4.8986   4.9116   5.0431   5.0996   5.1002   5.1166
     5.1468   5.1551   5.1732   5.2077   5.2269   5.2457   5.2526   5.2727
     5.2737   5.2954   5.3245   5.4085   5.4454   5.4601   5.4661   5.4726
     5.5236   5.5344   5.5522   5.6195   5.6476   5.6516   5.6556   5.6737
     5.6781   5.7156   5.7328   5.7977   5.8270   5.8383   5.8413   5.8570
     5.8701   5.8706   5.8953   5.9356   5.9574   5.9674   5.9915   5.9933
     6.0102   6.0105   6.0266   6.0428   6.0978   6.1090   6.1134   6.1319
     6.1448   6.1647   6.1846   6.2499   6.2720   6.2744   6.2964   6.2982
     6.3041   6.3297   6.3373   6.3443   6.3574   6.4086   6.4550   6.4763
     6.4788   6.4910   6.4933   6.5091   6.5401   6.5484   6.5504   6.5535
     6.5761   6.6173   6.6395   6.6670   6.7006   6.7279   6.7341   6.7514
     6.7816   6.7998   6.8404   6.9312   6.9600   6.9684   6.9934   7.0088

     the Fermi energy is     5.3026 ev

!    total energy              =  -12616.46599521 Ry
     total all-electron energy =   -103594.969802 Ry
     estimated scf accuracy    <          6.4E-11 Ry
     smearing contrib. (-TS)   =       0.01075863 Ry
     internal energy E=F+TS    =  -12616.47675384 Ry

     The total energy is F=E-TS. E is the sum of the following terms:
     one-electron contribution =  -67624.24441132 Ry
     hartree contribution      =   33928.47491792 Ry
     xc contribution           =   -1216.14983516 Ry
     ewald contribution        =   26057.81178577 Ry
     DFT-D3 Dispersion         =      -1.08825220 Ry
     one-center paw contrib.   =   -3761.28095886 Ry

     convergence has been achieved in  42 iterations

     negative rho (up, down):  2.088E-04 0.000E+00

     Forces acting on atoms (cartesian axes, Ry/au):

     atom    1 type  1   force =    -0.00006496    0.00008373   -0.00025702
     atom    2 type  1   force =     0.00010501   -0.00001476   -0.00025729
     atom    3 type  1   force =    -0.00000261   -0.00000494   -0.00016725
     atom    4 type  1   force =     0.00003263    0.00005633   -0.00037203
     atom    5 type  1   force =     0.00009890    0.00009761   -0.00016288
     atom    6 type  1   force =     0.00003519    0.00013422   -0.00016287
     atom    7 type  2   force =    -0.00005638   -0.00009776    0.00000456
     atom    8 type  2   force =     0.00015494    0.00012541   -0.00002325
     atom    9 type  2   force =     0.00003128    0.00019710   -0.00002341
     atom   10 type  1   force =     0.00022534   -0.00049714    0.00046671
     atom   11 type  1   force =    -0.00054347   -0.00005375    0.00046653
     atom   12 type  1   force =     0.00007161    0.00012307   -0.00020526
     atom   13 type  1   force =     0.00008318    0.00014395    0.00007396
     atom   14 type  1   force =     0.00009712    0.00002252    0.00016375
     atom   15 type  1   force =    -0.00002928    0.00009533    0.00016379
     atom   16 type  2   force =     0.00001437    0.00002481   -0.00011730
     atom   17 type  2   force =     0.00003230   -0.00008794    0.00018394
     atom   18 type  2   force =    -0.00009265   -0.00001583    0.00018400
     atom   19 type  1   force =     0.00025416    0.00033239   -0.00008884
     atom   20 type  1   force =     0.00002624    0.00010900   -0.00016024
     atom   21 type  1   force =    -0.00021395   -0.00007558   -0.00016562
     atom   22 type  1   force =     0.00027244    0.00034622    0.00014275
     atom   23 type  1   force =     0.00008022    0.00035932    0.00011387
     atom   24 type  1   force =     0.00041568    0.00034714   -0.00040581
     atom   25 type  2   force =     0.00001060    0.00037614    0.00016316
     atom   26 type  2   force =     0.00014215    0.00019004    0.00014944
     atom   27 type  2   force =     0.00016028    0.00024222    0.00008944
     atom   28 type  1   force =     0.00004405    0.00019153    0.00005298
     atom   29 type  1   force =    -0.00021548   -0.00005862   -0.00011907
     atom   30 type  1   force =    -0.00005784   -0.00030987    0.00019378
     atom   31 type  1   force =    -0.00008529   -0.00046374    0.00002524
     atom   32 type  1   force =    -0.00084562   -0.00017759    0.00050020
     atom   33 type  1   force =     0.00010365   -0.00043583   -0.00025423
     atom   34 type  2   force =    -0.00011422    0.00008215   -0.00006449
     atom   35 type  2   force =    -0.00026496   -0.00040596    0.00047886
     atom   36 type  2   force =     0.00006587   -0.00017672    0.00009977
     atom   37 type  1   force =     0.00008099    0.00007732   -0.00016014
     atom   38 type  1   force =     0.00016078    0.00038598   -0.00008864
     atom   39 type  1   force =     0.00004132   -0.00022310   -0.00016560
     atom   40 type  1   force =     0.00016359    0.00040887    0.00014231
     atom   41 type  1   force =     0.00009256    0.00053337   -0.00040597
     atom   42 type  1   force =     0.00027108    0.00024884    0.00011384
     atom   43 type  2   force =     0.00032055    0.00019653    0.00016313
     atom   44 type  2   force =     0.00012989    0.00025986    0.00008930
     atom   45 type  2   force =     0.00009371    0.00021792    0.00014947
     atom   46 type  1   force =     0.00005754   -0.00021719   -0.00011879
     atom   47 type  1   force =     0.00014385    0.00013497    0.00005342
     atom   48 type  1   force =    -0.00024004   -0.00020445    0.00019347
     atom   49 type  1   force =    -0.00035966   -0.00030547    0.00002544
     atom   50 type  1   force =    -0.00042987   -0.00012784   -0.00025375
     atom   51 type  1   force =     0.00026863   -0.00082098    0.00049990
     atom   52 type  2   force =     0.00012789   -0.00005788   -0.00006465
     atom   53 type  2   force =    -0.00018645   -0.00003136    0.00009987
     atom   54 type  2   force =    -0.00021895   -0.00043228    0.00047912
     atom   55 type  1   force =     0.00005091    0.00020101    0.00009504
     atom   56 type  1   force =     0.00014877    0.00014499    0.00009513
     atom   57 type  1   force =     0.00009544    0.00016531    0.00007543
     atom   58 type  1   force =    -0.00007268   -0.00012620    0.00002127
     atom   59 type  1   force =     0.00004224    0.00017862   -0.00041731
     atom   60 type  1   force =     0.00013401    0.00012577   -0.00041751
     atom   61 type  2   force =     0.00007613    0.00013242   -0.00043300
     atom   62 type  2   force =     0.00005480   -0.00000038    0.00031019
     atom   63 type  2   force =    -0.00002782    0.00004718    0.00031018
     atom   64 type  1   force =     0.00012767    0.00012171   -0.00069402
     atom   65 type  1   force =     0.00004080    0.00017145   -0.00069449
     atom   66 type  1   force =     0.00001039    0.00001815   -0.00029617
     atom   67 type  1   force =    -0.00013189   -0.00022886    0.00008454
     atom   68 type  1   force =    -0.00036143   -0.00029851    0.00002061
     atom   69 type  1   force =    -0.00007782   -0.00046207    0.00002155
     atom   70 type  2   force =     0.00000324    0.00000573   -0.00055571
     atom   71 type  2   force =    -0.00046036   -0.00007560    0.00078988
     atom   72 type  2   force =     0.00016476   -0.00043669    0.00078961
     atom   73 type  3   force =    -0.00010685   -0.00018648   -0.00032903
     atom   74 type  4   force =    -0.00033779   -0.00057984   -0.00042251
     atom   75 type  4   force =     0.00054557   -0.00042192    0.00049973
     atom   76 type  4   force =    -0.00063587    0.00026081    0.00049551
     atom   77 type  4   force =     0.00022981    0.00039612   -0.00081050

     Total force =     0.004119     Total SCF correction =     0.000044
     Energy error            =      4.2E-05 Ry
     Gradient error          =      8.5E-04 Ry/Bohr

     bfgs converged in  38 scf cycles and  37 bfgs steps
     (criteria: energy <  1.0E-04 Ry, force <  1.0E-03 Ry/Bohr)

     End of BFGS Geometry Optimization

     Final energy             =  -12616.4659952148 Ry

     File tmp/CH4-H31_Rot30_bridge_/CH4-H31_Rot30_bridge_.bfgs deleted, as requested
Begin final coordinates

ATOMIC_POSITIONS (angstrom)
Cr              -1.5999548500        2.7568695060        8.2398197264
Cr               3.1874961947       -0.0071643860        8.2398209195
Cr               0.7800583240        1.3511047307        8.2371029846
Cr               1.6262285199        2.8167130171        6.1096966995
Cr              -0.7487936470        1.2869770965        6.1079554455
Cr               1.4889477949       -0.0049828303        6.1079562282
N               -0.0021600735       -0.0037373060        5.0647457507
N                2.3742189622        1.3663571624        7.0954088197
N               -0.0038122753        2.7393135882        7.0954079308
Cr              -1.6509239922        2.8540740941       12.5091801492
Cr               3.2971629190       -0.0027005807       12.5091785540
Cr               0.6963920811        1.2061875817       12.4708273298
Cr               1.5958484111        2.7640951273       10.4319396869
Cr              -0.7889969249        1.3483005091       10.4204349490
Cr               1.5621623213       -0.0091399574       10.4204343762
N                0.0006739974        0.0011684391        9.3113710532
N                2.3680747137        1.3722059193       11.5453150734
N                0.0043259256        2.7369148047       11.5453160151
Cr              -3.9745408151        6.8754795390        8.2352003413
Cr               0.8187751822        4.1117544240        8.2350599908
Cr              -1.5967549001        5.4590940537        8.2340967647
Cr              -0.7493738769        6.9307274148        6.1059448363
Cr              -3.1245934168        5.3976801665        6.1100673898
Cr              -0.8893043912        4.1082164188        6.1072692355
N               -2.3796664768        4.1070859173        5.0631743071
N               -0.0014345465        5.4803166500        7.0923264475
N               -2.3773134160        6.8520565398        7.0926564101
Cr              -4.0153411290        6.9631317768       12.5068515014
Cr               0.8958083364        4.0869201968       12.5457817167
Cr              -1.6532966727        5.3795106062       12.5231199999
Cr              -0.7721034352        6.8680682233       10.4337696659
Cr              -3.1318003343        5.4680325394       10.4198483669
Cr              -0.8060683988        4.1205980043       10.4444584368
N               -2.3673492283        4.1084162643        9.3217406692
N                0.0188426209        5.4800606780       11.5858261864
N               -2.3670985021        6.8565817625       11.5483033293
Cr               3.1514952907        2.7649571563        8.2350616073
Cr               7.9416116553       -0.0043101312        8.2352001358
Cr               5.5260920624        1.3467182492        8.2340977443
Cr               6.3768711549        2.8163893529        6.1059469757
Cr               4.0024699552        1.2839524074        6.1072711353
Cr               6.2368226070       -0.0071327158        6.1100668683
N                4.7466713528       -0.0073019755        5.0631742564
N                7.1227112224        1.3672168054        7.0926566748
N                4.7468093269        2.7389182540        7.0923292205
Cr               3.0914675949        2.8192706101       12.5457682204
Cr               8.0379236964        0.0041773240       12.5068515032
Cr               5.4854446607        1.2579610519       12.5231189007
Cr               6.3339773893        2.7653720273       10.4337682094
Cr               3.9715788013        1.3622244573       10.4444581105
Cr               6.3013576850        0.0217980474       10.4198489644
N                4.7416691986        0.0040240937        9.3217413592
N                7.1215273828        1.3783223577       11.5483032108
N                4.7364529881        2.7563495533       11.5858237687
Cr               0.7738133897        6.8744787117        8.2418505886
Cr               5.5665675426        4.1073825262        8.2418521082
Cr               3.1513577531        5.4583142588        8.2350439177
Cr               4.0032971293        6.9339150772        6.1079399404
Cr               1.6263963166        5.4021292755        6.1076210574
Cr               3.8651806326        4.1095664602        6.1076232662
N                2.3725488111        4.1093751646        5.0669757726
N                4.7478565034        5.4806757389        7.0946276649
N                2.3724748606        6.8521028004        7.0946263806
Cr               0.7051036483        7.0185871284       12.5091411931
Cr               5.7257297728        4.1199306604       12.5091402563
Cr               3.1535872488        5.4621667885       12.4422781726
Cr               3.9688767991        6.8742943630       10.4335378283
Cr               1.5843581806        5.4711880942       10.4283835531
Cr               3.9460130677        4.1076902905       10.4283765191
N                2.3750246187        4.1136650372        9.3287825620
N                4.7855270132        5.4773868300       11.5272221958
N                2.3507941613        6.8830784994       11.5272237396
C                2.0569718495        3.5627799920       14.6808074087
H                1.7890024395        3.0985464252       15.6509032660
H                2.7259492015        2.6889217019       14.3340133725
H                0.9656838713        3.7052009821       14.3340674831
H                2.5907841723        4.4873868871       14.9169303503
End final coordinates



     Writing all to output data dir tmp/CH4-H31_Rot30_bridge_/CH4-H31_Rot30_bridge_.save/ :
     XML data file, charge density, pseudopotentials, collected wavefunctions
 
     init_run     :     18.52s CPU     19.39s WALL (       1 calls)
     electrons    :  63162.05s CPU  64901.70s WALL (      38 calls)
     update_pot   :     46.45s CPU     48.52s WALL (      37 calls)
     forces       :    385.32s CPU    399.44s WALL (      38 calls)
     force_dftd3  :      8.11s CPU      8.63s WALL (      38 calls)

     Called by init_run:
     wfcinit      :     14.32s CPU     14.77s WALL (       1 calls)
     potinit      :      1.04s CPU      1.18s WALL (       1 calls)
     hinit0       :      0.34s CPU      0.44s WALL (       1 calls)

     Called by electrons:
     c_bands      :  51892.99s CPU  53007.95s WALL (    1594 calls)
     sum_band     :   8914.18s CPU   9239.59s WALL (    1594 calls)
     v_of_rho     :    915.18s CPU    982.47s WALL (    1615 calls)
     newd         :    685.18s CPU    888.40s WALL (    1615 calls)
     PAW_pot      :    582.57s CPU    590.68s WALL (    1652 calls)
     mix_rho      :    128.92s CPU    138.89s WALL (    1594 calls)
     energy_dftd3 :      4.33s CPU      4.36s WALL (      38 calls)

     Called by c_bands:
     init_us_2    :    908.94s CPU    921.46s WALL (    9792 calls)
     cegterg      :  48648.05s CPU  49733.34s WALL (    4782 calls)

     Called by *egterg:
     cdiaghg      :   1706.49s CPU   1727.16s WALL (   16318 calls)
     h_psi        :  24074.02s CPU  24552.61s WALL (   16483 calls)
     s_psi        :   5599.84s CPU   5657.85s WALL (   16483 calls)
     g_psi        :    108.65s CPU    110.11s WALL (   11698 calls)

     Called by h_psi:
     h_psi:calbec :   5671.44s CPU   5732.58s WALL (   16483 calls)
     vloc_psi     :  12601.77s CPU  12824.57s WALL (   16483 calls)
                                        0.00s GPU  (   16483 calls)
     add_vuspsi   :   5611.11s CPU   5671.22s WALL (   16483 calls)

     General routines
     calbec       :   8606.67s CPU   8697.69s WALL (   21832 calls)
     fft          :    724.75s CPU    784.32s WALL (   21391 calls)
     ffts         :      9.29s CPU     10.62s WALL (    3209 calls)
     fftw         :  12495.94s CPU  12706.97s WALL (12001102 calls)
     interpolate  :     52.72s CPU     58.39s WALL (    1615 calls)
 
     Parallel routines
 
     PWSCF        :     17h42m CPU     18h11m WALL

 
   This run was terminated on:  18:16:48   9Jun2026            

=------------------------------------------------------------------------------=
   JOB DONE.
=------------------------------------------------------------------------------=
