
     Program PWSCF v.7.5 starts on  4Jun2026 at 15:20: 7 

     This program is part of the open-source Quantum ESPRESSO suite
     for quantum simulation of materials; please cite
         "P. Giannozzi et al., J. Phys.:Condens. Matter 21 395502 (2009);
         "P. Giannozzi et al., J. Phys.:Condens. Matter 29 465901 (2017);
         "P. Giannozzi et al., J. Chem. Phys. 152 154105 (2020);
          URL http://www.quantum-espresso.org", 
     in publications or presentations arising from this work. More details at
     http://www.quantum-espresso.org/quote

     Parallel version (MPI & OpenMP), running on      64 processor cores
     Number of MPI processes:                64
     Threads/MPI process:                     1

     MPI processes distributed on     1 nodes
     370130 MiB available memory on the printing compute node when the environment starts
 
     Reading input from generated_inputs/adsorcion/pw-CH4-H31_Rot30_hollow_.in
Warning: card &CELL ignored

     Current dimensions of program PWSCF are:
     Max number of different atomic species (ntypx) = 10
     Max number of k-points (npk) =  40000
     Max angular momentum in pseudopotentials (lmaxx) =  4
     file Cr.pbe-spn-kjpaw_psl.1.0.0.UPF: wavefunction(s)  3S 3P 3D renormalized
     file N.pbe-n-kjpaw_psl.1.0.0.UPF: wavefunction(s)  2S renormalized
     file C.pbe-n-kjpaw_psl.1.0.0.UPF: wavefunction(s)  2S 2P renormalized
     file H.pbe-kjpaw_psl.1.0.0.UPF: wavefunction(s)  1S renormalized
     Message from routine find_sym:
     Not a group! Trying with lower acceptance parameter...
     Message from routine find_sym:
     Symmetry operations form a group
 
     K-points division:     npool     =       4
     R & G space division:  proc/nbgrp/npool/nimage =      16
     Subspace diagonalization in iterative solution of the eigenvalue problem:
     one sub-group per band group will be used
     scalapack distributed-memory algorithm (size of sub-group:  4*  4 procs)

 
     Parallelization info
     --------------------
     sticks:   dense  smooth     PW     G-vecs:    dense   smooth      PW
     Min        1166     388    102               281408    54158    7274
     Max        1167     389    103               281417    54165    7281
     Sum       18661    6217   1639              4502593   866593  116429
 
     Using Slab Decomposition
 


     bravais-lattice index     =            0
     lattice parameter (alat)  =      17.9576  a.u.
     unit-cell volume          =   10952.5767 (a.u.)^3
     number of atoms/cell      =           77
     number of atomic types    =            4
     number of electrons       =       800.00
     number of Kohn-Sham states=          480
     kinetic-energy cutoff     =      70.0000  Ry
     charge density cutoff     =     840.0000  Ry
     scf convergence threshold =      1.0E-08
     mixing beta               =       0.2000
     number of iterations used =            8  plain     mixing
     energy convergence thresh.=      1.0E-04
     force convergence thresh. =      1.0E-03
     Exchange-correlation= SLA  PW   PBX  PBC
                           (   1   4   3   4   0   0   0)
     nstep                     =          200


     celldm(1)=  17.957575  celldm(2)=   0.000000  celldm(3)=   0.000000
     celldm(4)=   0.000000  celldm(5)=   0.000000  celldm(6)=   0.000000

     crystal axes: (cart. coord. in units of alat)
               a(1) = (   1.000000   0.000000   0.000000 )  
               a(2) = (  -0.500000   0.866025   0.000000 )  
               a(3) = (   0.000000   0.000000   2.183951 )  

     reciprocal axes: (cart. coord. in units 2 pi/alat)
               b(1) = (  1.000000  0.577351  0.000000 )  
               b(2) = (  0.000000  1.154701  0.000000 )  
               b(3) = (  0.000000  0.000000  0.457886 )  


     PseudoPot. # 1 for Cr read from file:
     pseudo/Cr.pbe-spn-kjpaw_psl.1.0.0.UPF
     MD5 check sum: 198f1a2427a48552563eee314eba32ba
     Pseudo is Projector augmented-wave + core cor, Zval = 14.0
     Generated using &quot;atomic&quot; code by A. Dal Corso  v.6.3
     Shape of augmentation charge: PSQ
     Using radial grid of 1183 points,  6 beta functions with: 
                l(1) =   0
                l(2) =   0
                l(3) =   1
                l(4) =   1
                l(5) =   2
                l(6) =   2
     Q(r) pseudized with 0 coefficients 


     PseudoPot. # 2 for N  read from file:
     pseudo/N.pbe-n-kjpaw_psl.1.0.0.UPF
     MD5 check sum: 14c48229446f9f2d411169a3abcbc3fa
     Pseudo is Projector augmented-wave + core cor, Zval =  5.0
     Generated using &quot;atomic&quot; code by A. Dal Corso  v.6.3
     Shape of augmentation charge: PSQ
     Using radial grid of 1085 points,  4 beta functions with: 
                l(1) =   0
                l(2) =   0
                l(3) =   1
                l(4) =   1
     Q(r) pseudized with 0 coefficients 


     PseudoPot. # 3 for C  read from file:
     pseudo/C.pbe-n-kjpaw_psl.1.0.0.UPF
     MD5 check sum: 5f16ad9a65e90284d1d834d4ab3b0f7d
     Pseudo is Projector augmented-wave + core cor, Zval =  4.0
     Generated using &quot;atomic&quot; code by A. Dal Corso  v.6.3
     Shape of augmentation charge: PSQ
     Using radial grid of 1073 points,  4 beta functions with: 
                l(1) =   0
                l(2) =   0
                l(3) =   1
                l(4) =   1
     Q(r) pseudized with 0 coefficients 


     PseudoPot. # 4 for H  read from file:
     pseudo/H.pbe-kjpaw_psl.1.0.0.UPF
     MD5 check sum: d81a744832360e4a8af0b0b5b123bc2a
     Pseudo is Projector augmented-wave, Zval =  1.0
     Generated using &quot;atomic&quot; code by A. Dal Corso  v.6.3MaX
     Shape of augmentation charge: PSQ
     Using radial grid of  929 points,  2 beta functions with: 
                l(1) =   0
                l(2) =   0
     Q(r) pseudized with 0 coefficients 


     atomic species   valence    mass     pseudopotential
     Cr               14.00    51.99610     Cr( 1.00)
     N                 5.00    14.00670     N ( 1.00)
     C                 4.00    12.01100     C ( 1.00)
     H                 1.00     1.00800     H ( 1.00)

     No symmetry found



   Cartesian axes

     site n.     atom                  positions (alat units)
         1        Cr     tau(   1) = (  -0.1681591   0.2912601   0.8673998  )
         2        Cr     tau(   2) = (   0.3363182   0.0000000   0.8673998  )
         3        Cr     tau(   3) = (   0.0818405   0.1417518   0.8673993  )
         4        Cr     tau(   4) = (   0.1684970   0.2918454   0.6425759  )
         5        Cr     tau(   5) = (  -0.0815030   0.1411673   0.6425759  )
         6        Cr     tau(   6) = (   0.1630059   0.0000000   0.6425759  )
         7        N      tau(   7) = (   0.0000000   0.0000000   0.5261641  )
         8        N      tau(   8) = (   0.2500000   0.1443376   0.7485579  )
         9        N      tau(   9) = (   0.0000000   0.2886752   0.7485579  )
        10        Cr     tau(  10) = (  -0.1730001   0.2996450   1.3148727  )
        11        Cr     tau(  11) = (   0.3460003   0.0000000   1.3148727  )
        12        Cr     tau(  12) = (   0.0770029   0.1333729   1.3148745  )
        13        Cr     tau(  13) = (   0.1677092   0.2904808   1.0968932  )
        14        Cr     tau(  14) = (  -0.0822901   0.1425306   1.0968938  )
        15        Cr     tau(  15) = (   0.1645802   0.0000000   1.0968938  )
        16        N      tau(  16) = (   0.0000000   0.0000000   0.9808490  )
        17        N      tau(  17) = (   0.2500004   0.1443372   1.2145625  )
        18        N      tau(  18) = (  -0.0000005   0.2886753   1.2145625  )
        19        Cr     tau(  19) = (  -0.4181595   0.7242736   0.8673993  )
        20        Cr     tau(  20) = (   0.0863184   0.4330126   0.8674001  )
        21        Cr     tau(  21) = (  -0.1681593   0.5747652   0.8674001  )
        22        Cr     tau(  22) = (  -0.0815030   0.7248581   0.6425759  )
        23        Cr     tau(  23) = (  -0.3315030   0.5741800   0.6425759  )
        24        Cr     tau(  24) = (  -0.0869941   0.4330127   0.6425759  )
        25        N      tau(  25) = (  -0.2500000   0.4330127   0.5261641  )
        26        N      tau(  26) = (   0.0000000   0.5773503   0.7485581  )
        27        N      tau(  27) = (  -0.2500000   0.7216878   0.7485579  )
        28        Cr     tau(  28) = (  -0.4229971   0.7326525   1.3148745  )
        29        Cr     tau(  29) = (   0.0959968   0.4330121   1.3148749  )
        30        Cr     tau(  30) = (  -0.1729989   0.5663837   1.3148749  )
        31        Cr     tau(  31) = (  -0.0822898   0.7234940   1.0968932  )
        32        Cr     tau(  32) = (  -0.3322908   0.5755446   1.0968932  )
        33        Cr     tau(  33) = (  -0.0854193   0.4330133   1.0968932  )
        34        N      tau(  34) = (  -0.2500001   0.4330128   0.9808490  )
        35        N      tau(  35) = (   0.0000000   0.5773503   1.2145635  )
        36        N      tau(  36) = (  -0.2499996   0.7216882   1.2145625  )
        37        Cr     tau(  37) = (   0.3318407   0.2912602   0.8674001  )
        38        Cr     tau(  38) = (   0.8363191   0.0000000   0.8673993  )
        39        Cr     tau(  39) = (   0.5818409   0.1417524   0.8674001  )
        40        Cr     tau(  40) = (   0.6684970   0.2918454   0.6425759  )
        41        Cr     tau(  41) = (   0.4184970   0.1411673   0.6425759  )
        42        Cr     tau(  42) = (   0.6630059   0.0000000   0.6425759  )
        43        N      tau(  43) = (   0.5000000   0.0000000   0.5261641  )
        44        N      tau(  44) = (   0.7500000   0.1443376   0.7485579  )
        45        N      tau(  45) = (   0.5000000   0.2886751   0.7485581  )
        46        Cr     tau(  46) = (   0.3270011   0.2996417   1.3148749  )
        47        Cr     tau(  47) = (   0.8459942   0.0000000   1.3148745  )
        48        Cr     tau(  48) = (   0.5770021   0.1333704   1.3148749  )
        49        Cr     tau(  49) = (   0.6677091   0.2904819   1.0968932  )
        50        Cr     tau(  50) = (   0.4177102   0.1425314   1.0968932  )
        51        Cr     tau(  51) = (   0.6645817   0.0000000   1.0968932  )
        52        N      tau(  52) = (   0.5000001   0.0000000   0.9808490  )
        53        N      tau(  53) = (   0.7500001   0.1443381   1.2145625  )
        54        N      tau(  54) = (   0.5000000   0.2886751   1.2145635  )
        55        Cr     tau(  55) = (   0.0818409   0.7242730   0.8674001  )
        56        Cr     tau(  56) = (   0.5863184   0.4330128   0.8674001  )
        57        Cr     tau(  57) = (   0.3318409   0.5747653   0.8673998  )
        58        Cr     tau(  58) = (   0.4184970   0.7248581   0.6425759  )
        59        Cr     tau(  59) = (   0.1684970   0.5741800   0.6425759  )
        60        Cr     tau(  60) = (   0.4130059   0.4330127   0.6425759  )
        61        N      tau(  61) = (   0.2500000   0.4330127   0.5261641  )
        62        N      tau(  62) = (   0.5000000   0.5773502   0.7485579  )
        63        N      tau(  63) = (   0.2500000   0.7216878   0.7485579  )
        64        Cr     tau(  64) = (   0.0770021   0.7326550   1.3148749  )
        65        Cr     tau(  65) = (   0.5959968   0.4330133   1.3148749  )
        66        Cr     tau(  66) = (   0.3269999   0.5663804   1.3148727  )
        67        Cr     tau(  67) = (   0.4177099   0.7234948   1.0968938  )
        68        Cr     tau(  68) = (   0.1677091   0.5755435   1.0968932  )
        69        Cr     tau(  69) = (   0.4145807   0.4330121   1.0968932  )
        70        N      tau(  70) = (   0.2499999   0.4330126   0.9808490  )
        71        N      tau(  71) = (   0.4999995   0.5773501   1.2145625  )
        72        N      tau(  72) = (   0.2500001   0.7216873   1.2145625  )
        73        C      tau(  73) = (   0.2499993   0.4330114   1.5635696  )
        74        H      tau(  74) = (   0.2500036   0.4330038   1.6782712  )
        75        H      tau(  75) = (   0.3040686   0.3393605   1.5253274  )
        76        H      tau(  76) = (   0.1418561   0.4330139   1.5253399  )
        77        H      tau(  77) = (   0.3040686   0.5266674   1.5253399  )

     --------------------------------------------
     DFT-D3 Dispersion Correction (3-body terms):
     --------------------------------------------
       Reference C6 values for interpolation: 

         atom   Coordination number   C6
         H          0.912             6.05
         H          0.000            15.18
         C          0.000            98.23
         C          0.987            86.49
         C          1.998            58.72
         C          2.999            51.56
         C          3.984            36.41
         N          0.000            50.54
         N          0.994            44.25
         N          2.014            39.35
         N          2.990            31.16
         Cr         0.000          1381.48
         Cr         1.827           571.38
         Cr        10.619           306.69

       Values used:

         atom   Coordination number  R0_AB[au]  C6      C8
         Cr        12.627            3.252    306.69  28303.74
         Cr        12.627            3.252    306.69  28303.74
         Cr        12.627            3.252    306.69  28303.74
         Cr        10.143            3.252    306.69  28303.74
         Cr        10.143            3.252    306.69  28303.74
         Cr        10.143            3.252    306.69  28303.74
         N          3.022            2.478     31.29    690.36
         N          6.023            2.478     31.16    687.49
         N          6.023            2.478     31.16    687.49
         Cr         9.071            3.252    306.69  28303.74
         Cr         9.071            3.252    306.69  28303.74
         Cr         9.074            3.252    306.69  28303.74
         Cr        12.748            3.252    306.69  28303.74
         Cr        12.748            3.252    306.69  28303.74
         Cr        12.748            3.252    306.69  28303.74
         N          6.047            2.478     31.16    687.49
         N          6.032            2.478     31.16    687.49
         N          6.032            2.478     31.16    687.49
         Cr        12.627            3.252    306.69  28303.74
         Cr        12.627            3.252    306.69  28303.74
         Cr        12.627            3.252    306.69  28303.74
         Cr        10.143            3.252    306.69  28303.74
         Cr        10.143            3.252    306.69  28303.74
         Cr        10.143            3.252    306.69  28303.74
         N          3.022            2.478     31.29    690.36
         N          6.023            2.478     31.16    687.49
         N          6.023            2.478     31.16    687.49
         Cr         9.071            3.252    306.69  28303.74
         Cr         9.450            3.252    306.69  28303.74
         Cr         9.071            3.252    306.69  28303.74
         Cr        12.748            3.252    306.69  28303.74
         Cr        12.748            3.252    306.69  28303.74
         Cr        12.748            3.252    306.69  28303.74
         N          6.047            2.478     31.16    687.49
         N          6.032            2.478     31.16    687.49
         N          6.032            2.478     31.16    687.49
         Cr        12.627            3.252    306.69  28303.74
         Cr        12.627            3.252    306.69  28303.74
         Cr        12.627            3.252    306.69  28303.74
         Cr        10.143            3.252    306.69  28303.74
         Cr        10.143            3.252    306.69  28303.74
         Cr        10.143            3.252    306.69  28303.74
         N          3.022            2.478     31.29    690.36
         N          6.023            2.478     31.16    687.49
         N          6.023            2.478     31.16    687.49
         Cr         9.450            3.252    306.69  28303.74
         Cr         9.071            3.252    306.69  28303.74
         Cr         9.071            3.252    306.69  28303.74
         Cr        12.748            3.252    306.69  28303.74
         Cr        12.748            3.252    306.69  28303.74
         Cr        12.748            3.252    306.69  28303.74
         N          6.047            2.478     31.16    687.49
         N          6.032            2.478     31.16    687.49
         N          6.032            2.478     31.16    687.49
         Cr        12.627            3.252    306.69  28303.74
         Cr        12.627            3.252    306.69  28303.74
         Cr        12.627            3.252    306.69  28303.74
         Cr        10.143            3.252    306.69  28303.74
         Cr        10.143            3.252    306.69  28303.74
         Cr        10.143            3.252    306.69  28303.74
         N          3.022            2.478     31.29    690.36
         N          6.023            2.478     31.16    687.49
         N          6.023            2.478     31.16    687.49
         Cr         9.074            3.252    306.69  28303.74
         Cr         9.074            3.252    306.69  28303.74
         Cr         9.450            3.252    306.69  28303.74
         Cr        12.748            3.252    306.69  28303.74
         Cr        12.748            3.252    306.69  28303.74
         Cr        12.748            3.252    306.69  28303.74
         N          6.047            2.478     31.16    687.49
         N          6.032            2.478     31.16    687.49
         N          6.032            2.478     31.16    687.49
         C          4.412            2.750     36.42   1053.41
         H          0.997            2.062      6.18     74.75
         H          1.236            2.062      6.08     73.45
         H          1.236            2.062      6.08     73.45
         H          1.236            2.062      6.08     73.45

         Molecular C6 ( Ry / a.u.^6 ) =    974347.90


     number of k points=    10  Methfessel-Paxton smearing, width (Ry)=  0.0200
                       cart. coord. in units 2pi/alat
        k(    1) = (   0.0000000   0.0000000   0.0000000), wk =   0.1250000
        k(    2) = (   0.0000000   0.2886753   0.0000000), wk =   0.2500000
        k(    3) = (   0.0000000  -0.5773505   0.0000000), wk =   0.1250000
        k(    4) = (   0.2500000   0.4330129   0.0000000), wk =   0.2500000
        k(    5) = (   0.2500000   0.1443376   0.0000000), wk =   0.2500000
        k(    6) = (  -0.2500000   0.1443376   0.0000000), wk =   0.2500000
        k(    7) = (  -0.5000000  -0.2886753   0.0000000), wk =   0.1250000
        k(    8) = (   0.5000000  -0.2886753   0.0000000), wk =   0.1250000
        k(    9) = (  -0.5000000   0.0000000   0.0000000), wk =   0.2500000
        k(   10) = (   0.2500000  -0.4330129   0.0000000), wk =   0.2500000

     Dense  grid:  4502593 G-vectors     FFT dimensions: ( 180, 180, 375)

     Smooth grid:   866593 G-vectors     FFT dimensions: (  96,  96, 216)

     Estimated max dynamical RAM per process >     867.27 MB

     Estimated total dynamical RAM >      50.98 GB

     Initial potential from superposition of free atoms

     starting charge     799.9627, renormalised to     800.0000

     negative rho (up, down):  4.126E-04 0.000E+00
     Starting wfcs are  584 randomized atomic wfcs
     Checking if some PAW data can be deallocated... 

     total cpu time spent up to now is       20.3 secs

     Self-consistent Calculation

     iteration #  1     ecut=    70.00 Ry     beta= 0.20
     Davidson diagonalization with overlap
     ethr =  1.00E-02,  avg # of iterations =  2.7

     negative rho (up, down):  1.640E-04 0.000E+00

     total cpu time spent up to now is       66.7 secs

     total energy              =  -12610.70477667 Ry
     estimated scf accuracy    <      28.82315356 Ry

     iteration #  2     ecut=    70.00 Ry     beta= 0.20
     Davidson diagonalization with overlap
     ethr =  3.60E-03,  avg # of iterations =  6.6

     negative rho (up, down):  4.735E-04 0.000E+00

     total cpu time spent up to now is      122.9 secs

     total energy              =  -12600.39015730 Ry
     estimated scf accuracy    <     655.95695253 Ry

     iteration #  3     ecut=    70.00 Ry     beta= 0.20
     Davidson diagonalization with overlap
     ethr =  3.60E-03,  avg # of iterations =  2.9

     negative rho (up, down):  6.904E-04 0.000E+00

     total cpu time spent up to now is      165.3 secs

     total energy              =  -12608.90654053 Ry
     estimated scf accuracy    <     483.77671090 Ry

     iteration #  4     ecut=    70.00 Ry     beta= 0.20
     Davidson diagonalization with overlap
     ethr =  3.60E-03,  avg # of iterations =  2.0

     negative rho (up, down):  3.369E-04 0.000E+00

     total cpu time spent up to now is      206.0 secs

     total energy              =  -12614.83689984 Ry
     estimated scf accuracy    <      84.97863821 Ry

     iteration #  5     ecut=    70.00 Ry     beta= 0.20
     Davidson diagonalization with overlap
     ethr =  3.60E-03,  avg # of iterations =  1.3

     negative rho (up, down):  4.453E-04 0.000E+00

     total cpu time spent up to now is      244.4 secs

     total energy              =  -12615.20034527 Ry
     estimated scf accuracy    <      29.06836213 Ry

     iteration #  6     ecut=    70.00 Ry     beta= 0.20
     Davidson diagonalization with overlap
     ethr =  3.60E-03,  avg # of iterations =  1.1

     negative rho (up, down):  5.228E-04 0.000E+00

     total cpu time spent up to now is      281.0 secs

     total energy              =  -12616.18398533 Ry
     estimated scf accuracy    <       3.56132883 Ry

     iteration #  7     ecut=    70.00 Ry     beta= 0.20
     Davidson diagonalization with overlap
     ethr =  4.45E-04,  avg # of iterations = 13.1

     negative rho (up, down):  5.390E-04 0.000E+00

     total cpu time spent up to now is      333.8 secs

     total energy              =  -12616.34647579 Ry
     estimated scf accuracy    <       1.77424011 Ry

     iteration #  8     ecut=    70.00 Ry     beta= 0.20
     Davidson diagonalization with overlap
     ethr =  2.22E-04,  avg # of iterations =  2.0

     negative rho (up, down):  5.622E-04 0.000E+00

     total cpu time spent up to now is      374.6 secs

     total energy              =  -12616.36310203 Ry
     estimated scf accuracy    <       0.97561571 Ry

     iteration #  9     ecut=    70.00 Ry     beta= 0.20
     Davidson diagonalization with overlap
     ethr =  1.22E-04,  avg # of iterations =  2.9

     negative rho (up, down):  4.463E-04 0.000E+00

     total cpu time spent up to now is      416.8 secs

     total energy              =  -12616.36226898 Ry
     estimated scf accuracy    <       0.52699864 Ry

     iteration # 10     ecut=    70.00 Ry     beta= 0.20
     Davidson diagonalization with overlap
     ethr =  6.59E-05,  avg # of iterations = 12.4

     negative rho (up, down):  4.239E-04 0.000E+00

     total cpu time spent up to now is      468.0 secs

     total energy              =  -12616.35900827 Ry
     estimated scf accuracy    <       0.58137650 Ry

     iteration # 11     ecut=    70.00 Ry     beta= 0.20
     Davidson diagonalization with overlap
     ethr =  6.59E-05,  avg # of iterations =  1.3

     negative rho (up, down):  4.175E-04 0.000E+00

     total cpu time spent up to now is      505.9 secs

     total energy              =  -12616.37157316 Ry
     estimated scf accuracy    <       0.23272378 Ry

     iteration # 12     ecut=    70.00 Ry     beta= 0.20
     Davidson diagonalization with overlap
     ethr =  2.91E-05,  avg # of iterations =  8.9

     negative rho (up, down):  2.993E-04 0.000E+00

     total cpu time spent up to now is      558.7 secs

     total energy              =  -12616.36521091 Ry
     estimated scf accuracy    <       0.45212179 Ry

     iteration # 13     ecut=    70.00 Ry     beta= 0.20
     Davidson diagonalization with overlap
     ethr =  2.91E-05,  avg # of iterations =  1.0

     negative rho (up, down):  2.583E-04 0.000E+00

     total cpu time spent up to now is      594.2 secs

     total energy              =  -12616.37293150 Ry
     estimated scf accuracy    <       0.13798278 Ry

     iteration # 14     ecut=    70.00 Ry     beta= 0.20
     Davidson diagonalization with overlap
     ethr =  1.72E-05,  avg # of iterations =  1.2

     negative rho (up, down):  2.207E-04 0.000E+00

     total cpu time spent up to now is      632.0 secs

     total energy              =  -12616.37392909 Ry
     estimated scf accuracy    <       0.05433880 Ry

     iteration # 15     ecut=    70.00 Ry     beta= 0.20
     Davidson diagonalization with overlap
     ethr =  6.79E-06,  avg # of iterations =  3.9

     negative rho (up, down):  2.101E-04 0.000E+00

     total cpu time spent up to now is      675.8 secs

     total energy              =  -12616.37192889 Ry
     estimated scf accuracy    <       0.29392468 Ry

     iteration # 16     ecut=    70.00 Ry     beta= 0.20
     Davidson diagonalization with overlap
     ethr =  6.79E-06,  avg # of iterations =  1.5

     negative rho (up, down):  1.987E-04 0.000E+00

     total cpu time spent up to now is      712.9 secs

     total energy              =  -12616.37613380 Ry
     estimated scf accuracy    <       0.02298914 Ry

     iteration # 17     ecut=    70.00 Ry     beta= 0.20
     Davidson diagonalization with overlap
     ethr =  2.87E-06,  avg # of iterations = 11.5

     negative rho (up, down):  2.008E-04 0.000E+00

     total cpu time spent up to now is      763.5 secs

     total energy              =  -12616.37560713 Ry
     estimated scf accuracy    <       0.07143150 Ry

     iteration # 18     ecut=    70.00 Ry     beta= 0.20
     Davidson diagonalization with overlap
     ethr =  2.87E-06,  avg # of iterations =  1.4

     negative rho (up, down):  2.022E-04 0.000E+00

     total cpu time spent up to now is      801.3 secs

     total energy              =  -12616.37659496 Ry
     estimated scf accuracy    <       0.04249901 Ry

     iteration # 19     ecut=    70.00 Ry     beta= 0.20
     Davidson diagonalization with overlap
     ethr =  2.87E-06,  avg # of iterations =  1.1

     negative rho (up, down):  2.037E-04 0.000E+00

     total cpu time spent up to now is      837.7 secs

     total energy              =  -12616.37742024 Ry
     estimated scf accuracy    <       0.00566463 Ry

     iteration # 20     ecut=    70.00 Ry     beta= 0.20
     Davidson diagonalization with overlap
     ethr =  7.08E-07,  avg # of iterations =  2.0

     negative rho (up, down):  2.074E-04 0.000E+00

     total cpu time spent up to now is      878.1 secs

     total energy              =  -12616.37752339 Ry
     estimated scf accuracy    <       0.00519896 Ry

     iteration # 21     ecut=    70.00 Ry     beta= 0.20
     Davidson diagonalization with overlap
     ethr =  6.50E-07,  avg # of iterations =  1.0

     negative rho (up, down):  2.106E-04 0.000E+00

     total cpu time spent up to now is      913.8 secs

     total energy              =  -12616.37774637 Ry
     estimated scf accuracy    <       0.00183791 Ry

     iteration # 22     ecut=    70.00 Ry     beta= 0.20
     Davidson diagonalization with overlap
     ethr =  2.30E-07,  avg # of iterations =  3.3

     negative rho (up, down):  2.147E-04 0.000E+00

     total cpu time spent up to now is      956.3 secs

     total energy              =  -12616.37775444 Ry
     estimated scf accuracy    <       0.00395521 Ry

     iteration # 23     ecut=    70.00 Ry     beta= 0.20
     Davidson diagonalization with overlap
     ethr =  2.30E-07,  avg # of iterations =  1.2

     negative rho (up, down):  2.156E-04 0.000E+00

     total cpu time spent up to now is      994.1 secs

     total energy              =  -12616.37788088 Ry
     estimated scf accuracy    <       0.00053775 Ry

     iteration # 24     ecut=    70.00 Ry     beta= 0.20
     Davidson diagonalization with overlap
     ethr =  6.72E-08,  avg # of iterations =  5.2

     negative rho (up, down):  2.148E-04 0.000E+00

     total cpu time spent up to now is     1037.7 secs

     total energy              =  -12616.37789701 Ry
     estimated scf accuracy    <       0.00085183 Ry

     iteration # 25     ecut=    70.00 Ry     beta= 0.20
     Davidson diagonalization with overlap
     ethr =  6.72E-08,  avg # of iterations =  1.2

     negative rho (up, down):  2.158E-04 0.000E+00

     total cpu time spent up to now is     1074.4 secs

     total energy              =  -12616.37790990 Ry
     estimated scf accuracy    <       0.00061385 Ry

     iteration # 26     ecut=    70.00 Ry     beta= 0.20
     Davidson diagonalization with overlap
     ethr =  6.72E-08,  avg # of iterations =  1.2

     negative rho (up, down):  2.160E-04 0.000E+00

     total cpu time spent up to now is     1112.2 secs

     total energy              =  -12616.37792192 Ry
     estimated scf accuracy    <       0.00062271 Ry

     iteration # 27     ecut=    70.00 Ry     beta= 0.20
     Davidson diagonalization with overlap
     ethr =  6.72E-08,  avg # of iterations =  1.0

     negative rho (up, down):  2.147E-04 0.000E+00

     total cpu time spent up to now is     1147.7 secs

     total energy              =  -12616.37792660 Ry
     estimated scf accuracy    <       0.00037090 Ry

     iteration # 28     ecut=    70.00 Ry     beta= 0.20
     Davidson diagonalization with overlap
     ethr =  4.64E-08,  avg # of iterations =  1.0

     negative rho (up, down):  2.147E-04 0.000E+00

     total cpu time spent up to now is     1183.3 secs

     total energy              =  -12616.37792342 Ry
     estimated scf accuracy    <       0.00056826 Ry

     iteration # 29     ecut=    70.00 Ry     beta= 0.20
     Davidson diagonalization with overlap
     ethr =  4.64E-08,  avg # of iterations =  1.0

     negative rho (up, down):  2.143E-04 0.000E+00

     total cpu time spent up to now is     1218.9 secs

     total energy              =  -12616.37793203 Ry
     estimated scf accuracy    <       0.00011947 Ry

     iteration # 30     ecut=    70.00 Ry     beta= 0.20
     Davidson diagonalization with overlap
     ethr =  1.49E-08,  avg # of iterations =  1.9

     negative rho (up, down):  2.141E-04 0.000E+00

     total cpu time spent up to now is     1258.9 secs

     total energy              =  -12616.37793439 Ry
     estimated scf accuracy    <       0.00005973 Ry

     iteration # 31     ecut=    70.00 Ry     beta= 0.20
     Davidson diagonalization with overlap
     ethr =  7.47E-09,  avg # of iterations =  2.0

     negative rho (up, down):  2.133E-04 0.000E+00

     total cpu time spent up to now is     1299.2 secs

     total energy              =  -12616.37793347 Ry
     estimated scf accuracy    <       0.00003370 Ry

     iteration # 32     ecut=    70.00 Ry     beta= 0.20
     Davidson diagonalization with overlap
     ethr =  4.21E-09,  avg # of iterations =  2.3

     negative rho (up, down):  2.133E-04 0.000E+00

     total cpu time spent up to now is     1339.7 secs

     total energy              =  -12616.37793330 Ry
     estimated scf accuracy    <       0.00003468 Ry

     iteration # 33     ecut=    70.00 Ry     beta= 0.20
     Davidson diagonalization with overlap
     ethr =  4.21E-09,  avg # of iterations =  1.5

     negative rho (up, down):  2.127E-04 0.000E+00

     total cpu time spent up to now is     1379.0 secs

     total energy              =  -12616.37793289 Ry
     estimated scf accuracy    <       0.00001016 Ry

     iteration # 34     ecut=    70.00 Ry     beta= 0.20
     Davidson diagonalization with overlap
     ethr =  1.27E-09,  avg # of iterations =  5.9

     negative rho (up, down):  2.123E-04 0.000E+00

     total cpu time spent up to now is     1422.7 secs

     total energy              =  -12616.37793134 Ry
     estimated scf accuracy    <       0.00004379 Ry

     iteration # 35     ecut=    70.00 Ry     beta= 0.20
     Davidson diagonalization with overlap
     ethr =  1.27E-09,  avg # of iterations =  1.9

     negative rho (up, down):  2.122E-04 0.000E+00

     total cpu time spent up to now is     1463.0 secs

     total energy              =  -12616.37793209 Ry
     estimated scf accuracy    <       0.00001568 Ry

     iteration # 36     ecut=    70.00 Ry     beta= 0.20
     Davidson diagonalization with overlap
     ethr =  1.27E-09,  avg # of iterations =  1.0

     negative rho (up, down):  2.123E-04 0.000E+00

     total cpu time spent up to now is     1498.6 secs

     total energy              =  -12616.37793231 Ry
     estimated scf accuracy    <       0.00001657 Ry

     iteration # 37     ecut=    70.00 Ry     beta= 0.20
     Davidson diagonalization with overlap
     ethr =  1.27E-09,  avg # of iterations =  1.0

     negative rho (up, down):  2.120E-04 0.000E+00

     total cpu time spent up to now is     1534.2 secs

     total energy              =  -12616.37793207 Ry
     estimated scf accuracy    <       0.00002551 Ry

     iteration # 38     ecut=    70.00 Ry     beta= 0.20
     Davidson diagonalization with overlap
     ethr =  1.27E-09,  avg # of iterations =  1.0

     negative rho (up, down):  2.119E-04 0.000E+00

     total cpu time spent up to now is     1569.8 secs

     total energy              =  -12616.37793217 Ry
     estimated scf accuracy    <       0.00000710 Ry

     iteration # 39     ecut=    70.00 Ry     beta= 0.20
     Davidson diagonalization with overlap
     ethr =  8.88E-10,  avg # of iterations =  1.0

     negative rho (up, down):  2.118E-04 0.000E+00

     total cpu time spent up to now is     1605.2 secs

     total energy              =  -12616.37793226 Ry
     estimated scf accuracy    <       0.00000244 Ry

     iteration # 40     ecut=    70.00 Ry     beta= 0.20
     Davidson diagonalization with overlap
     ethr =  3.05E-10,  avg # of iterations =  1.4

     negative rho (up, down):  2.117E-04 0.000E+00

     total cpu time spent up to now is     1644.5 secs

     total energy              =  -12616.37793228 Ry
     estimated scf accuracy    <       0.00000115 Ry

     iteration # 41     ecut=    70.00 Ry     beta= 0.20
     Davidson diagonalization with overlap
     ethr =  1.43E-10,  avg # of iterations =  2.3

     negative rho (up, down):  2.116E-04 0.000E+00

     total cpu time spent up to now is     1685.6 secs

     total energy              =  -12616.37793225 Ry
     estimated scf accuracy    <       0.00000295 Ry

     iteration # 42     ecut=    70.00 Ry     beta= 0.20
     Davidson diagonalization with overlap
     ethr =  1.43E-10,  avg # of iterations =  1.0

     negative rho (up, down):  2.116E-04 0.000E+00

     total cpu time spent up to now is     1721.2 secs

     total energy              =  -12616.37793226 Ry
     estimated scf accuracy    <       0.00000112 Ry

     iteration # 43     ecut=    70.00 Ry     beta= 0.20
     Davidson diagonalization with overlap
     ethr =  1.40E-10,  avg # of iterations =  1.3

     negative rho (up, down):  2.115E-04 0.000E+00

     total cpu time spent up to now is     1759.0 secs

     total energy              =  -12616.37793230 Ry
     estimated scf accuracy    <       0.00000108 Ry

     iteration # 44     ecut=    70.00 Ry     beta= 0.20
     Davidson diagonalization with overlap
     ethr =  1.35E-10,  avg # of iterations =  1.0

     negative rho (up, down):  2.115E-04 0.000E+00

     total cpu time spent up to now is     1794.7 secs

     total energy              =  -12616.37793233 Ry
     estimated scf accuracy    <       0.00000088 Ry

     iteration # 45     ecut=    70.00 Ry     beta= 0.20
     Davidson diagonalization with overlap
     ethr =  1.10E-10,  avg # of iterations =  1.0

     negative rho (up, down):  2.114E-04 0.000E+00

     total cpu time spent up to now is     1830.3 secs

     total energy              =  -12616.37793233 Ry
     estimated scf accuracy    <       0.00000096 Ry

     iteration # 46     ecut=    70.00 Ry     beta= 0.20
     Davidson diagonalization with overlap
     ethr =  1.10E-10,  avg # of iterations =  1.0

     negative rho (up, down):  2.115E-04 0.000E+00

     total cpu time spent up to now is     1865.9 secs

     total energy              =  -12616.37793233 Ry
     estimated scf accuracy    <       0.00000086 Ry

     iteration # 47     ecut=    70.00 Ry     beta= 0.20
     Davidson diagonalization with overlap
     ethr =  1.07E-10,  avg # of iterations =  1.0

     negative rho (up, down):  2.114E-04 0.000E+00

     total cpu time spent up to now is     1901.5 secs

     total energy              =  -12616.37793233 Ry
     estimated scf accuracy    <       0.00000241 Ry

     iteration # 48     ecut=    70.00 Ry     beta= 0.20
     Davidson diagonalization with overlap
     ethr =  1.07E-10,  avg # of iterations =  1.0

     negative rho (up, down):  2.114E-04 0.000E+00

     total cpu time spent up to now is     1937.0 secs

     total energy              =  -12616.37793236 Ry
     estimated scf accuracy    <       0.00000015 Ry

     iteration # 49     ecut=    70.00 Ry     beta= 0.20
     Davidson diagonalization with overlap
     ethr =  1.82E-11,  avg # of iterations =  2.0

     negative rho (up, down):  2.114E-04 0.000E+00

     total cpu time spent up to now is     1977.6 secs

     total energy              =  -12616.37793236 Ry
     estimated scf accuracy    <       0.00000028 Ry

     iteration # 50     ecut=    70.00 Ry     beta= 0.20
     Davidson diagonalization with overlap
     ethr =  1.82E-11,  avg # of iterations =  1.0

     negative rho (up, down):  2.114E-04 0.000E+00

     total cpu time spent up to now is     2013.2 secs

     total energy              =  -12616.37793237 Ry
     estimated scf accuracy    <       0.00000007 Ry

     iteration # 51     ecut=    70.00 Ry     beta= 0.20
     Davidson diagonalization with overlap
     ethr =  9.26E-12,  avg # of iterations =  2.0

     negative rho (up, down):  2.114E-04 0.000E+00

     total cpu time spent up to now is     2053.8 secs

     total energy              =  -12616.37793237 Ry
     estimated scf accuracy    <       0.00000009 Ry

     iteration # 52     ecut=    70.00 Ry     beta= 0.20
     Davidson diagonalization with overlap
     ethr =  9.26E-12,  avg # of iterations =  1.0

     negative rho (up, down):  2.114E-04 0.000E+00

     total cpu time spent up to now is     2089.2 secs

     total energy              =  -12616.37793237 Ry
     estimated scf accuracy    <       0.00000007 Ry

     iteration # 53     ecut=    70.00 Ry     beta= 0.20
     Davidson diagonalization with overlap
     ethr =  8.99E-12,  avg # of iterations =  1.0

     negative rho (up, down):  2.114E-04 0.000E+00

     total cpu time spent up to now is     2124.8 secs

     total energy              =  -12616.37793237 Ry
     estimated scf accuracy    <       0.00000002 Ry

     iteration # 54     ecut=    70.00 Ry     beta= 0.20
     Davidson diagonalization with overlap
     ethr =  2.91E-12,  avg # of iterations =  2.0

     negative rho (up, down):  2.114E-04 0.000E+00

     total cpu time spent up to now is     2165.5 secs

     total energy              =  -12616.37793237 Ry
     estimated scf accuracy    <       0.00000002 Ry

     iteration # 55     ecut=    70.00 Ry     beta= 0.20
     Davidson diagonalization with overlap
     ethr =  2.39E-12,  avg # of iterations =  1.9

     negative rho (up, down):  2.114E-04 0.000E+00

     total cpu time spent up to now is     2205.9 secs

     total energy              =  -12616.37793237 Ry
     estimated scf accuracy    <       0.00000006 Ry

     iteration # 56     ecut=    70.00 Ry     beta= 0.20
     Davidson diagonalization with overlap
     ethr =  2.39E-12,  avg # of iterations =  1.6

     negative rho (up, down):  2.114E-04 0.000E+00

     total cpu time spent up to now is     2245.9 secs

     total energy              =  -12616.37793237 Ry
     estimated scf accuracy    <       0.00000002 Ry

     iteration # 57     ecut=    70.00 Ry     beta= 0.20
     Davidson diagonalization with overlap
     ethr =  2.39E-12,  avg # of iterations =  1.0

     negative rho (up, down):  2.114E-04 0.000E+00

     total cpu time spent up to now is     2281.4 secs

     total energy              =  -12616.37793237 Ry
     estimated scf accuracy    <       0.00000009 Ry

     iteration # 58     ecut=    70.00 Ry     beta= 0.20
     Davidson diagonalization with overlap
     ethr =  2.39E-12,  avg # of iterations =  1.0

     negative rho (up, down):  2.115E-04 0.000E+00

     total cpu time spent up to now is     2316.8 secs

     End of self-consistent calculation

          k = 0.0000 0.0000 0.0000 (108303 PWs)   bands (ev):

   -66.9577 -66.9173 -66.9169 -66.9169 -66.9091 -66.9091 -66.9071 -66.9070
   -66.8830 -66.8823 -66.8823 -66.8802 -66.8802 -66.8789 -66.8752 -66.8752
   -66.8733 -66.8711 -66.8711 -66.8640 -66.8604 -66.8604 -66.8579 -66.8579
   -66.7034 -66.6741 -66.6741 -66.6739 -66.6678 -66.6666 -66.6666 -66.6506
   -66.6506 -66.6495 -66.6438 -66.6438 -66.6285 -66.5891 -66.5813 -66.5813
   -66.5766 -66.5766 -66.5390 -66.5390 -66.5387 -66.5362 -66.5254 -66.5254
   -38.7621 -38.7356 -38.7356 -38.7300 -38.6326 -38.6326 -38.6326 -38.5935
   -38.5935 -38.5770 -38.5770 -38.5745 -38.5541 -38.5235 -38.5235 -38.5171
   -38.4989 -38.4989 -38.4958 -38.4765 -38.4665 -38.4665 -38.4344 -38.4344
   -38.4305 -38.4305 -38.4296 -38.4224 -38.3477 -38.3361 -38.3319 -38.3319
   -38.3285 -38.3269 -38.3254 -38.3254 -38.3207 -38.3207 -38.2860 -38.2852
   -38.2852 -38.2686 -38.2686 -38.2677 -38.2649 -38.2277 -38.2260 -38.2234
   -38.2234 -38.2208 -38.2208 -38.2179 -38.2179 -38.2154 -38.1996 -38.1996
   -38.1952 -38.1952 -38.1911 -38.1898 -38.1898 -38.1861 -38.1861 -38.1860
   -38.1765 -38.1727 -38.1727 -38.1685 -38.1595 -38.1595 -38.1555 -38.1290
   -38.1290 -38.1187 -38.1066 -38.1049 -38.1049 -38.0984 -38.0984 -38.0931
   -38.0870 -38.0781 -38.0781 -38.0707 -38.0578 -38.0578 -38.0505 -38.0498
   -38.0498 -38.0347 -38.0347 -38.0124 -38.0121 -38.0068 -38.0068 -38.0014
   -37.9962 -37.9962 -37.9887 -37.9886 -37.9842 -37.9602 -37.9595 -37.9595
   -37.9274 -37.9274 -37.9193 -37.9193 -37.9171 -37.9113 -37.9113 -37.9060
   -37.9010 -37.9010 -37.8984 -37.8860 -37.8832 -37.8740 -37.8740 -37.8674
   -37.8674 -37.8559 -37.8559 -37.8558 -37.8222 -37.8214 -37.8214 -37.8205
   -37.8205 -37.8200 -37.7917 -37.7917 -37.7871 -37.7705 -37.7614 -37.7614
   -37.6593 -37.6592 -37.6459 -37.6318 -37.6310 -37.6310 -37.6084 -37.6084
   -12.4588 -11.9900 -11.7558 -11.7558 -11.7532 -11.6110 -11.6109 -11.6022
   -11.5841 -11.5841 -11.5788 -11.3023 -11.3023 -11.2963 -11.2239 -11.1921
   -11.1920 -11.1870 -10.9615 -10.9373  -9.6608  -8.6679  -8.6679  -8.6676
    -8.6102  -2.9655  -2.9640  -2.9640  -2.7505  -2.7210  -2.7210  -2.5635
    -2.5227  -2.5227  -2.5220  -2.5093  -2.5093  -2.4396  -2.3925  -2.3642
    -2.3642  -2.2895  -2.2808  -2.2808  -2.2363  -2.2362  -2.1126  -2.1125
    -2.0183  -1.7157  -1.7157  -1.6855  -1.5361  -1.5349  -1.5349  -1.4475
    -1.4475  -1.4405  -1.3808  -1.3808  -1.3792  -1.2969  -1.2969  -1.2954
    -1.2828  -1.2407  -1.2407  -1.1861  -1.1767  -1.1767  -1.0454  -1.0454
    -0.9411  -0.8765  -0.8708  -0.8708  -0.8544  -0.8544  -0.8116  -0.7831
    -0.7831  -0.7788  -0.6439  -0.6391  -0.6391  -0.3951  -0.3907  -0.3907
     0.6974   1.2679   1.2685   1.2685   1.5109   1.5112   1.5112   1.5842
     1.6049   1.6049   1.6245   1.6266   1.6266   1.6472   1.6477   1.6477
     1.8141   1.8226   1.8226   2.1061   2.1090   2.1090   2.2336   2.2336
     2.2393   2.2652   2.3761   2.3942   2.3942   2.4798   2.4798   2.4889
     2.4962   2.4962   2.4963   2.5561   2.5604   2.5604   2.5766   2.7380
     2.7380   2.8368   2.8452   2.8452   3.1999   3.1999   3.2406   3.3311
     3.3311   3.3942   3.3942   3.3954   3.4065   3.4065   3.4099   3.5189
     3.5189   3.5376   3.5407   3.5893   3.5893   3.6888   3.7090   3.7090
     3.7267   3.7357   3.7357   3.7686   3.7686   3.7743   3.7750   3.8652
     3.8652   3.8746   4.0144   4.0144   4.0743   4.1764   4.1764   4.1897
     4.2013   4.2013   4.3314   4.3380   4.3380   4.3552   4.3741   4.3893
     4.3894   4.4474   4.4643   4.4643   4.4762   4.5209   4.5394   4.5395
     4.5947   4.5947   4.6648   4.7492   4.7492   4.7823   4.7845   4.8337
     4.8337   4.8829   4.8829   4.9219   4.9308   4.9308   4.9403   4.9975
     5.0007   5.0007   5.0614   5.0614   5.1654   5.1777   5.1777   5.1807
     5.2547   5.2547   5.4264   5.4367   5.4367   5.4391   5.5475   5.5475
     5.5943   5.5943   5.5981   5.6141   5.6141   5.6144   5.7413   5.7413
     5.7446   5.7537   5.7634   5.7634   5.7741   5.7741   5.7973   5.7973
     5.8544   5.8861   5.9092   5.9092   5.9119   5.9147   5.9147   5.9537
     5.9537   5.9592   6.0337   6.0338   6.0417   6.0508   6.0508   6.0564
     6.0564   6.0765   6.1149   6.1149   6.1163   6.1442   6.1442   6.1733
     6.2501   6.2501   6.2590   6.2603   6.2603   6.3072   6.3072   6.3174
     6.3216   6.3216   6.3620   6.3643   6.3643   6.4118   6.4118   6.4467
     6.5759   6.6181   6.6181   6.6199   6.6723   6.6724   6.6982   6.7006
     6.7007   6.7614   6.7652   6.7655   6.7721   6.7726   6.8285   6.8793

          k = 0.0000 0.2887 0.0000 (108355 PWs)   bands (ev):

   -66.9542 -66.9301 -66.9210 -66.9201 -66.9046 -66.9029 -66.9018 -66.8959
   -66.8881 -66.8855 -66.8849 -66.8830 -66.8811 -66.8808 -66.8742 -66.8734
   -66.8720 -66.8702 -66.8676 -66.8647 -66.8616 -66.8603 -66.8585 -66.8583
   -66.7008 -66.6830 -66.6766 -66.6760 -66.6635 -66.6626 -66.6588 -66.6523
   -66.6517 -66.6493 -66.6454 -66.6449 -66.6281 -66.5903 -66.5828 -66.5813
   -66.5764 -66.5751 -66.5393 -66.5387 -66.5366 -66.5360 -66.5268 -66.5257
   -38.7587 -38.7390 -38.7315 -38.7273 -38.6284 -38.6279 -38.6262 -38.6012
   -38.5927 -38.5834 -38.5831 -38.5798 -38.5554 -38.5394 -38.5267 -38.5212
   -38.4959 -38.4914 -38.4831 -38.4781 -38.4684 -38.4673 -38.4625 -38.4400
   -38.4248 -38.4236 -38.4224 -38.4006 -38.3421 -38.3405 -38.3353 -38.3302
   -38.3276 -38.3223 -38.3192 -38.3189 -38.3142 -38.3072 -38.2902 -38.2886
   -38.2855 -38.2787 -38.2723 -38.2705 -38.2602 -38.2410 -38.2393 -38.2259
   -38.2240 -38.2222 -38.2219 -38.2218 -38.2185 -38.2174 -38.2089 -38.2050
   -38.2029 -38.2014 -38.1972 -38.1906 -38.1897 -38.1854 -38.1782 -38.1752
   -38.1716 -38.1694 -38.1684 -38.1564 -38.1524 -38.1502 -38.1476 -38.1307
   -38.1298 -38.1159 -38.1149 -38.1110 -38.1098 -38.0982 -38.0976 -38.0908
   -38.0850 -38.0812 -38.0808 -38.0673 -38.0666 -38.0595 -38.0543 -38.0497
   -38.0412 -38.0392 -38.0277 -38.0161 -38.0108 -38.0077 -38.0053 -37.9980
   -37.9953 -37.9890 -37.9855 -37.9819 -37.9801 -37.9665 -37.9647 -37.9618
   -37.9314 -37.9278 -37.9244 -37.9172 -37.9163 -37.9151 -37.9065 -37.9057
   -37.9007 -37.8979 -37.8961 -37.8828 -37.8810 -37.8749 -37.8727 -37.8691
   -37.8677 -37.8584 -37.8582 -37.8543 -37.8279 -37.8241 -37.8238 -37.8154
   -37.8147 -37.8120 -37.8017 -37.7942 -37.7852 -37.7699 -37.7624 -37.7622
   -37.6576 -37.6562 -37.6435 -37.6330 -37.6314 -37.6281 -37.6156 -37.6096
   -12.3952 -11.9677 -11.9476 -11.8119 -11.8094 -11.6803 -11.5949 -11.5901
   -11.5188 -11.5153 -11.4374 -11.2939 -11.2896 -11.2430 -11.2245 -11.2217
   -11.2122 -11.1583 -10.9946 -10.9721  -9.6609  -8.6695  -8.6693  -8.6580
    -8.6173  -2.9381  -2.9310  -2.8919  -2.7779  -2.7082  -2.6970  -2.6836
    -2.6657  -2.6618  -2.5599  -2.5454  -2.4255  -2.3654  -2.3340  -2.3169
    -2.3051  -2.2825  -2.2467  -2.2104  -2.1660  -2.1396  -2.1041  -2.0942
    -2.0155  -1.8975  -1.7241  -1.7141  -1.6664  -1.5810  -1.5784  -1.5249
    -1.4381  -1.4347  -1.3853  -1.3769  -1.3475  -1.3387  -1.3200  -1.2793
    -1.2756  -1.2622  -1.2121  -1.2070  -1.1929  -1.0799  -1.0374  -1.0203
    -0.9726  -0.9138  -0.8641  -0.8505  -0.8467  -0.7937  -0.7910  -0.7878
    -0.7616  -0.7334  -0.6808  -0.6114  -0.6095  -0.4636  -0.4196  -0.4172
     0.8193   1.2298   1.2613   1.2616   1.5006   1.5008   1.5096   1.5131
     1.5769   1.5955   1.5967   1.6156   1.6759   1.7143   1.7178   1.7293
     1.8297   1.8346   1.8769   2.1165   2.1167   2.1600   2.2083   2.2129
     2.2652   2.3173   2.3496   2.3555   2.3784   2.4761   2.4796   2.4945
     2.5037   2.5068   2.5700   2.5988   2.6027   2.6170   2.6410   2.6700
     2.7740   2.8510   2.8530   2.9163   3.0739   3.1195   3.1840   3.2506
     3.2529   3.2858   3.2915   3.3196   3.4156   3.4180   3.4385   3.4493
     3.4506   3.4875   3.5655   3.6188   3.6460   3.6633   3.6866   3.7245
     3.7515   3.7569   3.7649   3.7834   3.8226   3.8315   3.8371   3.9158
     4.0083   4.0355   4.0600   4.0759   4.0844   4.0964   4.1117   4.1944
     4.2220   4.2306   4.2880   4.2981   4.3279   4.3396   4.3511   4.3586
     4.3737   4.4041   4.4246   4.4313   4.4540   4.5035   4.5348   4.5448
     4.5477   4.6145   4.6267   4.6973   4.7406   4.7759   4.8007   4.8137
     4.8346   4.8505   4.8891   4.9030   4.9545   4.9793   4.9925   4.9966
     5.0283   5.0465   5.0566   5.1135   5.1359   5.1859   5.1993   5.2322
     5.2464   5.2785   5.3482   5.3693   5.3859   5.4091   5.4687   5.5043
     5.5190   5.5230   5.5236   5.5770   5.6039   5.6119   5.6181   5.6259
     5.6317   5.7316   5.7459   5.7888   5.8034   5.8074   5.8084   5.8158
     5.8446   5.8643   5.8669   5.8853   5.8960   5.9341   5.9430   5.9456
     5.9537   5.9845   5.9981   6.0185   6.0232   6.0326   6.0666   6.0686
     6.0819   6.0883   6.0921   6.1003   6.1142   6.1176   6.1484   6.2324
     6.2492   6.2593   6.2795   6.2992   6.3037   6.3075   6.3081   6.3602
     6.3674   6.3702   6.3710   6.4206   6.4493   6.4571   6.4658   6.5089
     6.5170   6.5300   6.5882   6.5959   6.6038   6.6123   6.7002   6.7105
     6.7161   6.7409   6.7509   6.7707   6.7887   6.8139   6.8519   6.8560

          k = 0.0000-0.5774 0.0000 (108310 PWs)   bands (ev):

   -66.9448 -66.9440 -66.9232 -66.9222 -66.8984 -66.8976 -66.8950 -66.8938
   -66.8915 -66.8904 -66.8851 -66.8825 -66.8823 -66.8821 -66.8780 -66.8767
   -66.8683 -66.8669 -66.8659 -66.8644 -66.8626 -66.8604 -66.8597 -66.8591
   -66.6937 -66.6933 -66.6781 -66.6774 -66.6587 -66.6575 -66.6557 -66.6553
   -66.6507 -66.6501 -66.6475 -66.6469 -66.6276 -66.5913 -66.5839 -66.5817
   -66.5760 -66.5740 -66.5394 -66.5379 -66.5375 -66.5323 -66.5296 -66.5261
   -38.7503 -38.7484 -38.7271 -38.7233 -38.6235 -38.6183 -38.6177 -38.6144
   -38.5953 -38.5895 -38.5868 -38.5851 -38.5546 -38.5523 -38.5289 -38.5231
   -38.4935 -38.4868 -38.4830 -38.4801 -38.4767 -38.4714 -38.4560 -38.4517
   -38.4178 -38.4159 -38.4053 -38.4037 -38.3515 -38.3496 -38.3267 -38.3254
   -38.3203 -38.3185 -38.3114 -38.3108 -38.3022 -38.2984 -38.2890 -38.2875
   -38.2831 -38.2831 -38.2793 -38.2726 -38.2621 -38.2607 -38.2547 -38.2272
   -38.2259 -38.2254 -38.2231 -38.2222 -38.2217 -38.2176 -38.2164 -38.2080
   -38.2054 -38.2036 -38.2028 -38.1957 -38.1922 -38.1907 -38.1722 -38.1688
   -38.1666 -38.1591 -38.1581 -38.1484 -38.1427 -38.1401 -38.1401 -38.1358
   -38.1333 -38.1257 -38.1219 -38.1208 -38.0984 -38.0955 -38.0940 -38.0880
   -38.0855 -38.0854 -38.0799 -38.0732 -38.0719 -38.0700 -38.0565 -38.0497
   -38.0380 -38.0362 -38.0199 -38.0140 -38.0126 -38.0072 -38.0034 -38.0026
   -37.9941 -37.9933 -37.9821 -37.9763 -37.9758 -37.9705 -37.9521 -37.9520
   -37.9414 -37.9366 -37.9291 -37.9249 -37.9150 -37.9135 -37.9077 -37.9012
   -37.8976 -37.8958 -37.8914 -37.8877 -37.8777 -37.8745 -37.8703 -37.8688
   -37.8614 -37.8609 -37.8604 -37.8596 -37.8257 -37.8251 -37.8215 -37.8211
   -37.8114 -37.8106 -37.8019 -37.8014 -37.7834 -37.7674 -37.7652 -37.7631
   -37.6560 -37.6466 -37.6452 -37.6353 -37.6313 -37.6249 -37.6245 -37.6113
   -12.2188 -12.2173 -11.8466 -11.8443 -11.8339 -11.8305 -11.6025 -11.5981
   -11.4308 -11.4278 -11.3046 -11.3042 -11.2952 -11.2887 -11.2671 -11.2662
   -11.0870 -11.0845 -11.0650 -11.0647  -9.6609  -8.6711  -8.6709  -8.6365
    -8.6362  -2.9110  -2.8945  -2.8050  -2.7995  -2.7422  -2.7399  -2.7338
    -2.7276  -2.6133  -2.6054  -2.4932  -2.4892  -2.3701  -2.3264  -2.2991
    -2.2929  -2.2382  -2.2134  -2.1758  -2.1486  -2.0993  -2.0759  -1.9939
    -1.9938  -1.9504  -1.7971  -1.7927  -1.6538  -1.6469  -1.6027  -1.5971
    -1.5243  -1.5044  -1.4018  -1.3967  -1.3931  -1.3806  -1.2700  -1.2662
    -1.2223  -1.2204  -1.2072  -1.2022  -1.0883  -1.0862  -1.0087  -1.0079
    -0.9907  -0.9835  -0.8611  -0.8590  -0.8130  -0.8122  -0.7937  -0.7872
    -0.6907  -0.6896  -0.6281  -0.6266  -0.5814  -0.5784  -0.4434  -0.4408
     1.0623   1.0650   1.2492   1.2495   1.4780   1.4806   1.5007   1.5013
     1.5766   1.5768   1.5927   1.5931   1.7319   1.7350   1.7429   1.7494
     1.9691   1.9751   1.9764   1.9789   2.1510   2.1529   2.1842   2.1910
     2.2786   2.2823   2.4128   2.4157   2.4361   2.4375   2.4666   2.4692
     2.5056   2.5092   2.5167   2.5223   2.6257   2.6333   2.8008   2.8031
     2.8489   2.8564   2.8700   2.8806   3.0697   3.0740   3.0909   3.0926
     3.1619   3.1624   3.2565   3.2650   3.3794   3.3803   3.4398   3.4454
     3.4703   3.4789   3.5723   3.5743   3.6465   3.6791   3.7136   3.7154
     3.7756   3.7876   3.8527   3.8692   3.9192   3.9222   3.9470   3.9646
     3.9837   3.9918   4.0226   4.0412   4.0431   4.0568   4.1728   4.1805
     4.2044   4.2112   4.2824   4.2935   4.3259   4.3414   4.3725   4.3983
     4.4041   4.4122   4.4198   4.4319   4.4912   4.5098   4.5243   4.5246
     4.5344   4.5353   4.6483   4.6614   4.6646   4.6931   4.7311   4.7341
     4.7512   4.7548   4.8627   4.8755   5.0332   5.0408   5.0464   5.0485
     5.0517   5.0836   5.1163   5.1671   5.1688   5.1732   5.1877   5.1996
     5.2295   5.2418   5.3096   5.3782   5.3957   5.3981   5.4079   5.4130
     5.4871   5.4915   5.5175   5.5620   5.5762   5.5789   5.6184   5.6296
     5.6431   5.6538   5.6549   5.7523   5.7532   5.7607   5.7908   5.8000
     5.8129   5.8190   5.8371   5.8572   5.8943   5.9071   5.9263   5.9326
     5.9327   5.9523   5.9645   5.9697   6.0101   6.0408   6.0562   6.0603
     6.0857   6.1119   6.1275   6.1866   6.1976   6.2163   6.2221   6.2242
     6.2300   6.2384   6.2446   6.2536   6.2615   6.2672   6.3868   6.3994
     6.4032   6.4050   6.4415   6.4446   6.4786   6.4845   6.4951   6.5025
     6.5159   6.5282   6.5506   6.5534   6.6571   6.6581   6.6771   6.6798
     6.7056   6.7107   6.7653   6.7757   6.9014   6.9049   6.9079   6.9230

          k = 0.2500 0.4330 0.0000 (108308 PWs)   bands (ev):

   -66.9476 -66.9358 -66.9351 -66.9116 -66.9035 -66.9000 -66.8939 -66.8922
   -66.8916 -66.8887 -66.8881 -66.8827 -66.8821 -66.8789 -66.8773 -66.8760
   -66.8721 -66.8673 -66.8646 -66.8639 -66.8622 -66.8605 -66.8597 -66.8593
   -66.6958 -66.6871 -66.6868 -66.6703 -66.6637 -66.6575 -66.6544 -66.6539
   -66.6506 -66.6498 -66.6480 -66.6471 -66.6276 -66.5905 -66.5867 -66.5784
   -66.5764 -66.5749 -66.5387 -66.5386 -66.5374 -66.5328 -66.5290 -66.5263
   -38.7520 -38.7413 -38.7384 -38.7173 -38.6231 -38.6221 -38.6157 -38.6118
   -38.5966 -38.5920 -38.5852 -38.5838 -38.5547 -38.5453 -38.5445 -38.5057
   -38.4994 -38.4883 -38.4868 -38.4814 -38.4800 -38.4639 -38.4597 -38.4475
   -38.4139 -38.4122 -38.4114 -38.4002 -38.3769 -38.3298 -38.3288 -38.3281
   -38.3188 -38.3166 -38.3093 -38.3044 -38.3029 -38.2979 -38.2975 -38.2891
   -38.2842 -38.2788 -38.2759 -38.2738 -38.2607 -38.2530 -38.2524 -38.2500
   -38.2273 -38.2265 -38.2232 -38.2193 -38.2162 -38.2134 -38.2090 -38.2085
   -38.2071 -38.2061 -38.1995 -38.1958 -38.1927 -38.1918 -38.1897 -38.1639
   -38.1623 -38.1571 -38.1557 -38.1480 -38.1441 -38.1419 -38.1370 -38.1342
   -38.1328 -38.1258 -38.1257 -38.1212 -38.1001 -38.0934 -38.0908 -38.0893
   -38.0827 -38.0823 -38.0794 -38.0767 -38.0719 -38.0701 -38.0678 -38.0422
   -38.0378 -38.0371 -38.0184 -38.0180 -38.0142 -38.0091 -38.0071 -38.0025
   -37.9939 -37.9844 -37.9826 -37.9769 -37.9731 -37.9616 -37.9601 -37.9561
   -37.9412 -37.9310 -37.9303 -37.9239 -37.9168 -37.9104 -37.9070 -37.9046
   -37.9027 -37.8940 -37.8933 -37.8872 -37.8774 -37.8723 -37.8715 -37.8672
   -37.8654 -37.8635 -37.8557 -37.8553 -37.8302 -37.8294 -37.8183 -37.8173
   -37.8156 -37.8064 -37.8059 -37.7984 -37.7836 -37.7678 -37.7640 -37.7638
   -37.6534 -37.6518 -37.6407 -37.6388 -37.6310 -37.6252 -37.6229 -37.6113
   -12.2749 -12.0619 -12.0607 -11.8687 -11.7354 -11.7318 -11.6832 -11.5175
   -11.4908 -11.3814 -11.3618 -11.3601 -11.3453 -11.2803 -11.1713 -11.1673
   -11.1458 -11.1445 -11.0581 -11.0370  -9.6609  -8.6797  -8.6523  -8.6521
    -8.6306  -2.9543  -2.8517  -2.8483  -2.8307  -2.7201  -2.7190  -2.6804
    -2.6409  -2.5888  -2.5783  -2.5628  -2.5487  -2.5115  -2.3401  -2.2565
    -2.2367  -2.2072  -2.1759  -2.1366  -2.1269  -2.0836  -2.0798  -2.0452
    -2.0186  -1.9960  -1.8922  -1.7290  -1.7081  -1.6415  -1.6127  -1.5318
    -1.4789  -1.4743  -1.4035  -1.3790  -1.3600  -1.3301  -1.3196  -1.3192
    -1.3082  -1.2627  -1.1450  -1.1435  -1.1006  -1.0984  -1.0760  -1.0315
    -0.9187  -0.8925  -0.8905  -0.8390  -0.8269  -0.8150  -0.7909  -0.7651
    -0.7633  -0.7121  -0.7088  -0.6187  -0.5225  -0.5110  -0.5078  -0.4135
     0.9968   1.1806   1.1819   1.2819   1.4656   1.4819   1.4836   1.4852
     1.5287   1.6097   1.6103   1.6375   1.7018   1.7201   1.7230   1.7800
     1.8980   2.0171   2.0183   2.1052   2.1064   2.1692   2.1721   2.2273
     2.2347   2.2941   2.2966   2.3304   2.4054   2.4107   2.4453   2.4460
     2.4945   2.5461   2.6127   2.6400   2.6402   2.7195   2.7235   2.8348
     2.8434   2.8442   2.8800   2.8819   2.9800   2.9852   2.9857   3.0512
     3.2331   3.2963   3.3427   3.3439   3.3857   3.3877   3.3940   3.4806
     3.4820   3.4858   3.5025   3.6113   3.6267   3.6327   3.6846   3.7538
     3.7557   3.7969   3.8030   3.8325   3.8377   3.8945   3.9217   3.9279
     4.0477   4.0640   4.1010   4.1069   4.1141   4.1251   4.1311   4.1654
     4.1810   4.1983   4.2497   4.2838   4.2879   4.3401   4.3477   4.3699
     4.3934   4.4138   4.4345   4.4491   4.4653   4.4810   4.5114   4.5218
     4.6075   4.6140   4.6381   4.6466   4.6484   4.6536   4.7042   4.7266
     4.7824   4.9109   4.9115   4.9332   4.9345   4.9511   4.9515   4.9597
     5.0073   5.0425   5.0886   5.1245   5.1716   5.2098   5.2150   5.2192
     5.2551   5.3273   5.3449   5.3691   5.3762   5.3952   5.4461   5.4769
     5.4849   5.4895   5.5058   5.5332   5.5601   5.5681   5.6153   5.6394
     5.6524   5.6805   5.7314   5.7621   5.7786   5.7803   5.7938   5.8003
     5.8241   5.8293   5.8324   5.8333   5.8556   5.9124   5.9202   5.9280
     5.9317   5.9414   5.9664   5.9784   5.9836   6.0207   6.0291   6.0814
     6.0872   6.0964   6.1181   6.1279   6.1450   6.1611   6.1722   6.2244
     6.2267   6.2342   6.2643   6.2722   6.2900   6.3237   6.3409   6.3597
     6.3919   6.4009   6.4253   6.4324   6.4853   6.5084   6.5198   6.5490
     6.5562   6.5585   6.6184   6.6195   6.6487   6.6667   6.6986   6.7232
     6.7262   6.7346   6.7687   6.7779   6.7931   6.8471   6.9037   6.9087

          k = 0.2500 0.1443 0.0000 (108355 PWs)   bands (ev):

   -66.9542 -66.9301 -66.9210 -66.9201 -66.9046 -66.9029 -66.9018 -66.8959
   -66.8881 -66.8855 -66.8849 -66.8830 -66.8811 -66.8808 -66.8742 -66.8734
   -66.8720 -66.8702 -66.8676 -66.8647 -66.8616 -66.8603 -66.8585 -66.8583
   -66.7008 -66.6830 -66.6766 -66.6760 -66.6635 -66.6626 -66.6588 -66.6523
   -66.6517 -66.6493 -66.6454 -66.6449 -66.6281 -66.5903 -66.5828 -66.5813
   -66.5764 -66.5751 -66.5393 -66.5387 -66.5366 -66.5360 -66.5268 -66.5257
   -38.7587 -38.7390 -38.7315 -38.7273 -38.6284 -38.6279 -38.6262 -38.6012
   -38.5927 -38.5834 -38.5831 -38.5798 -38.5554 -38.5394 -38.5267 -38.5212
   -38.4959 -38.4914 -38.4831 -38.4780 -38.4684 -38.4673 -38.4625 -38.4400
   -38.4248 -38.4236 -38.4224 -38.4006 -38.3421 -38.3405 -38.3353 -38.3302
   -38.3276 -38.3223 -38.3192 -38.3189 -38.3142 -38.3072 -38.2902 -38.2886
   -38.2855 -38.2787 -38.2723 -38.2705 -38.2602 -38.2410 -38.2393 -38.2259
   -38.2240 -38.2222 -38.2219 -38.2218 -38.2185 -38.2174 -38.2089 -38.2050
   -38.2029 -38.2014 -38.1972 -38.1906 -38.1897 -38.1854 -38.1782 -38.1752
   -38.1716 -38.1694 -38.1684 -38.1564 -38.1524 -38.1502 -38.1476 -38.1307
   -38.1298 -38.1159 -38.1149 -38.1110 -38.1098 -38.0982 -38.0976 -38.0908
   -38.0850 -38.0811 -38.0808 -38.0673 -38.0666 -38.0595 -38.0543 -38.0497
   -38.0412 -38.0392 -38.0277 -38.0161 -38.0108 -38.0077 -38.0053 -37.9980
   -37.9953 -37.9890 -37.9855 -37.9819 -37.9801 -37.9665 -37.9647 -37.9618
   -37.9314 -37.9278 -37.9244 -37.9172 -37.9163 -37.9151 -37.9065 -37.9057
   -37.9007 -37.8979 -37.8961 -37.8828 -37.8810 -37.8749 -37.8727 -37.8690
   -37.8677 -37.8584 -37.8582 -37.8543 -37.8279 -37.8241 -37.8238 -37.8154
   -37.8147 -37.8120 -37.8017 -37.7942 -37.7852 -37.7699 -37.7624 -37.7622
   -37.6576 -37.6562 -37.6435 -37.6330 -37.6314 -37.6281 -37.6156 -37.6096
   -12.3952 -11.9677 -11.9476 -11.8119 -11.8094 -11.6803 -11.5949 -11.5901
   -11.5188 -11.5153 -11.4374 -11.2939 -11.2896 -11.2430 -11.2245 -11.2217
   -11.2122 -11.1583 -10.9946 -10.9721  -9.6609  -8.6695  -8.6693  -8.6580
    -8.6173  -2.9381  -2.9310  -2.8919  -2.7779  -2.7082  -2.6971  -2.6836
    -2.6657  -2.6618  -2.5599  -2.5454  -2.4255  -2.3654  -2.3340  -2.3169
    -2.3051  -2.2825  -2.2467  -2.2104  -2.1660  -2.1396  -2.1041  -2.0942
    -2.0155  -1.8975  -1.7241  -1.7141  -1.6664  -1.5810  -1.5784  -1.5249
    -1.4381  -1.4347  -1.3853  -1.3769  -1.3475  -1.3387  -1.3200  -1.2793
    -1.2756  -1.2622  -1.2121  -1.2070  -1.1929  -1.0799  -1.0374  -1.0203
    -0.9726  -0.9138  -0.8641  -0.8505  -0.8467  -0.7937  -0.7910  -0.7878
    -0.7616  -0.7334  -0.6808  -0.6114  -0.6095  -0.4636  -0.4196  -0.4172
     0.8193   1.2298   1.2613   1.2616   1.5006   1.5008   1.5096   1.5131
     1.5769   1.5955   1.5967   1.6156   1.6759   1.7143   1.7178   1.7293
     1.8297   1.8346   1.8769   2.1165   2.1167   2.1600   2.2083   2.2129
     2.2652   2.3173   2.3496   2.3555   2.3784   2.4761   2.4796   2.4945
     2.5037   2.5068   2.5700   2.5988   2.6027   2.6170   2.6410   2.6700
     2.7740   2.8510   2.8530   2.9163   3.0739   3.1195   3.1840   3.2506
     3.2529   3.2858   3.2915   3.3196   3.4156   3.4180   3.4385   3.4493
     3.4506   3.4875   3.5655   3.6188   3.6460   3.6633   3.6866   3.7245
     3.7515   3.7569   3.7649   3.7834   3.8226   3.8315   3.8371   3.9158
     4.0083   4.0355   4.0600   4.0759   4.0844   4.0964   4.1117   4.1944
     4.2220   4.2306   4.2880   4.2980   4.3279   4.3396   4.3511   4.3586
     4.3737   4.4041   4.4246   4.4313   4.4540   4.5035   4.5348   4.5448
     4.5476   4.6145   4.6267   4.6973   4.7406   4.7759   4.8007   4.8137
     4.8346   4.8505   4.8892   4.9030   4.9545   4.9793   4.9925   4.9966
     5.0283   5.0465   5.0566   5.1135   5.1359   5.1859   5.1993   5.2322
     5.2464   5.2785   5.3482   5.3693   5.3859   5.4091   5.4687   5.5043
     5.5190   5.5230   5.5236   5.5770   5.6039   5.6119   5.6181   5.6259
     5.6317   5.7316   5.7459   5.7888   5.8034   5.8074   5.8084   5.8158
     5.8446   5.8643   5.8669   5.8853   5.8960   5.9341   5.9430   5.9456
     5.9537   5.9845   5.9981   6.0185   6.0232   6.0326   6.0666   6.0686
     6.0819   6.0883   6.0921   6.1003   6.1142   6.1176   6.1484   6.2324
     6.2492   6.2593   6.2795   6.2992   6.3037   6.3075   6.3081   6.3602
     6.3674   6.3702   6.3710   6.4206   6.4493   6.4571   6.4658   6.5089
     6.5170   6.5300   6.5882   6.5959   6.6038   6.6124   6.7002   6.7104
     6.7162   6.7409   6.7510   6.7709   6.7886   6.8139   6.8519   6.8562

          k =-0.2500 0.1443 0.0000 (108355 PWs)   bands (ev):

   -66.9542 -66.9301 -66.9210 -66.9201 -66.9046 -66.9029 -66.9018 -66.8959
   -66.8881 -66.8855 -66.8849 -66.8830 -66.8811 -66.8808 -66.8742 -66.8734
   -66.8720 -66.8702 -66.8676 -66.8647 -66.8616 -66.8603 -66.8585 -66.8583
   -66.7008 -66.6830 -66.6766 -66.6760 -66.6635 -66.6626 -66.6588 -66.6523
   -66.6517 -66.6493 -66.6454 -66.6449 -66.6281 -66.5903 -66.5828 -66.5813
   -66.5764 -66.5751 -66.5393 -66.5387 -66.5366 -66.5360 -66.5268 -66.5257
   -38.7587 -38.7390 -38.7315 -38.7273 -38.6284 -38.6279 -38.6262 -38.6012
   -38.5927 -38.5834 -38.5831 -38.5798 -38.5554 -38.5394 -38.5267 -38.5212
   -38.4959 -38.4914 -38.4831 -38.4780 -38.4684 -38.4673 -38.4625 -38.4400
   -38.4248 -38.4236 -38.4224 -38.4006 -38.3421 -38.3405 -38.3353 -38.3302
   -38.3276 -38.3223 -38.3192 -38.3189 -38.3142 -38.3072 -38.2902 -38.2886
   -38.2855 -38.2787 -38.2723 -38.2705 -38.2602 -38.2410 -38.2393 -38.2259
   -38.2240 -38.2222 -38.2219 -38.2218 -38.2185 -38.2174 -38.2089 -38.2050
   -38.2029 -38.2014 -38.1971 -38.1906 -38.1897 -38.1854 -38.1782 -38.1752
   -38.1716 -38.1694 -38.1684 -38.1564 -38.1524 -38.1502 -38.1476 -38.1307
   -38.1298 -38.1159 -38.1149 -38.1110 -38.1098 -38.0982 -38.0976 -38.0908
   -38.0850 -38.0811 -38.0808 -38.0673 -38.0666 -38.0595 -38.0543 -38.0497
   -38.0412 -38.0392 -38.0277 -38.0161 -38.0108 -38.0078 -38.0053 -37.9980
   -37.9953 -37.9890 -37.9855 -37.9819 -37.9801 -37.9665 -37.9647 -37.9618
   -37.9314 -37.9278 -37.9244 -37.9172 -37.9163 -37.9151 -37.9065 -37.9057
   -37.9007 -37.8979 -37.8961 -37.8828 -37.8810 -37.8749 -37.8727 -37.8690
   -37.8677 -37.8584 -37.8582 -37.8543 -37.8279 -37.8241 -37.8238 -37.8154
   -37.8147 -37.8120 -37.8017 -37.7942 -37.7852 -37.7699 -37.7624 -37.7622
   -37.6576 -37.6562 -37.6435 -37.6330 -37.6314 -37.6281 -37.6156 -37.6096
   -12.3952 -11.9677 -11.9476 -11.8119 -11.8094 -11.6803 -11.5949 -11.5901
   -11.5188 -11.5153 -11.4374 -11.2939 -11.2895 -11.2430 -11.2245 -11.2217
   -11.2122 -11.1583 -10.9946 -10.9721  -9.6609  -8.6695  -8.6693  -8.6580
    -8.6173  -2.9381  -2.9310  -2.8919  -2.7779  -2.7082  -2.6971  -2.6836
    -2.6657  -2.6618  -2.5599  -2.5454  -2.4255  -2.3654  -2.3340  -2.3169
    -2.3051  -2.2825  -2.2467  -2.2104  -2.1660  -2.1396  -2.1041  -2.0942
    -2.0155  -1.8975  -1.7241  -1.7141  -1.6664  -1.5811  -1.5784  -1.5249
    -1.4380  -1.4347  -1.3853  -1.3769  -1.3475  -1.3387  -1.3200  -1.2793
    -1.2756  -1.2622  -1.2121  -1.2070  -1.1929  -1.0799  -1.0374  -1.0203
    -0.9726  -0.9138  -0.8641  -0.8505  -0.8467  -0.7937  -0.7910  -0.7878
    -0.7616  -0.7334  -0.6808  -0.6114  -0.6095  -0.4636  -0.4196  -0.4171
     0.8193   1.2298   1.2613   1.2616   1.5006   1.5008   1.5096   1.5131
     1.5769   1.5955   1.5967   1.6157   1.6759   1.7143   1.7178   1.7293
     1.8297   1.8346   1.8769   2.1165   2.1167   2.1600   2.2083   2.2129
     2.2652   2.3173   2.3496   2.3555   2.3784   2.4761   2.4796   2.4945
     2.5037   2.5068   2.5700   2.5988   2.6027   2.6170   2.6410   2.6700
     2.7740   2.8510   2.8530   2.9163   3.0739   3.1195   3.1840   3.2506
     3.2530   3.2858   3.2915   3.3196   3.4156   3.4180   3.4385   3.4493
     3.4506   3.4875   3.5655   3.6188   3.6459   3.6633   3.6866   3.7245
     3.7515   3.7569   3.7649   3.7834   3.8226   3.8315   3.8371   3.9158
     4.0083   4.0355   4.0600   4.0759   4.0844   4.0964   4.1117   4.1944
     4.2220   4.2306   4.2880   4.2981   4.3279   4.3396   4.3511   4.3586
     4.3737   4.4041   4.4246   4.4313   4.4540   4.5035   4.5348   4.5448
     4.5476   4.6145   4.6267   4.6973   4.7406   4.7759   4.8007   4.8137
     4.8346   4.8505   4.8892   4.9030   4.9545   4.9793   4.9925   4.9967
     5.0283   5.0465   5.0566   5.1135   5.1359   5.1859   5.1993   5.2322
     5.2464   5.2785   5.3482   5.3693   5.3859   5.4091   5.4687   5.5043
     5.5190   5.5230   5.5236   5.5770   5.6039   5.6119   5.6181   5.6258
     5.6318   5.7316   5.7459   5.7888   5.8034   5.8074   5.8084   5.8158
     5.8446   5.8643   5.8670   5.8853   5.8960   5.9341   5.9430   5.9456
     5.9537   5.9845   5.9981   6.0185   6.0232   6.0326   6.0666   6.0686
     6.0819   6.0883   6.0921   6.1003   6.1142   6.1176   6.1484   6.2324
     6.2492   6.2593   6.2795   6.2992   6.3037   6.3075   6.3080   6.3602
     6.3674   6.3702   6.3710   6.4206   6.4493   6.4571   6.4657   6.5089
     6.5170   6.5300   6.5882   6.5959   6.6038   6.6124   6.7002   6.7104
     6.7161   6.7409   6.7509   6.7708   6.7885   6.8139   6.8514   6.8559

          k =-0.5000-0.2887 0.0000 (108310 PWs)   bands (ev):

   -66.9448 -66.9440 -66.9232 -66.9222 -66.8984 -66.8976 -66.8950 -66.8938
   -66.8915 -66.8904 -66.8851 -66.8825 -66.8823 -66.8821 -66.8780 -66.8767
   -66.8683 -66.8669 -66.8659 -66.8644 -66.8626 -66.8604 -66.8597 -66.8591
   -66.6937 -66.6933 -66.6781 -66.6774 -66.6587 -66.6575 -66.6557 -66.6553
   -66.6507 -66.6501 -66.6475 -66.6469 -66.6276 -66.5913 -66.5839 -66.5817
   -66.5759 -66.5740 -66.5394 -66.5379 -66.5375 -66.5323 -66.5296 -66.5261
   -38.7503 -38.7484 -38.7271 -38.7233 -38.6235 -38.6183 -38.6177 -38.6144
   -38.5953 -38.5895 -38.5868 -38.5851 -38.5546 -38.5523 -38.5289 -38.5231
   -38.4935 -38.4868 -38.4830 -38.4801 -38.4766 -38.4714 -38.4560 -38.4517
   -38.4178 -38.4159 -38.4053 -38.4037 -38.3515 -38.3496 -38.3267 -38.3254
   -38.3203 -38.3185 -38.3114 -38.3108 -38.3022 -38.2984 -38.2890 -38.2875
   -38.2831 -38.2831 -38.2793 -38.2726 -38.2621 -38.2607 -38.2547 -38.2272
   -38.2259 -38.2254 -38.2231 -38.2222 -38.2217 -38.2176 -38.2164 -38.2080
   -38.2054 -38.2036 -38.2028 -38.1957 -38.1922 -38.1907 -38.1722 -38.1688
   -38.1666 -38.1591 -38.1581 -38.1484 -38.1427 -38.1401 -38.1401 -38.1358
   -38.1333 -38.1257 -38.1219 -38.1208 -38.0984 -38.0955 -38.0940 -38.0880
   -38.0855 -38.0854 -38.0799 -38.0732 -38.0719 -38.0700 -38.0565 -38.0497
   -38.0380 -38.0362 -38.0199 -38.0140 -38.0126 -38.0072 -38.0034 -38.0026
   -37.9941 -37.9933 -37.9821 -37.9763 -37.9758 -37.9705 -37.9521 -37.9520
   -37.9414 -37.9366 -37.9291 -37.9249 -37.9150 -37.9135 -37.9077 -37.9012
   -37.8976 -37.8958 -37.8914 -37.8877 -37.8777 -37.8745 -37.8703 -37.8688
   -37.8614 -37.8609 -37.8604 -37.8596 -37.8257 -37.8251 -37.8215 -37.8211
   -37.8114 -37.8106 -37.8019 -37.8014 -37.7834 -37.7674 -37.7652 -37.7631
   -37.6560 -37.6466 -37.6452 -37.6353 -37.6313 -37.6248 -37.6245 -37.6113
   -12.2189 -12.2173 -11.8466 -11.8443 -11.8339 -11.8305 -11.6025 -11.5981
   -11.4308 -11.4278 -11.3046 -11.3042 -11.2952 -11.2887 -11.2671 -11.2662
   -11.0870 -11.0845 -11.0650 -11.0647  -9.6609  -8.6711  -8.6709  -8.6365
    -8.6362  -2.9110  -2.8945  -2.8050  -2.7995  -2.7422  -2.7399  -2.7338
    -2.7276  -2.6133  -2.6054  -2.4932  -2.4892  -2.3701  -2.3264  -2.2991
    -2.2929  -2.2382  -2.2134  -2.1758  -2.1486  -2.0993  -2.0759  -1.9939
    -1.9938  -1.9504  -1.7971  -1.7927  -1.6538  -1.6469  -1.6027  -1.5971
    -1.5243  -1.5044  -1.4018  -1.3967  -1.3931  -1.3806  -1.2700  -1.2662
    -1.2223  -1.2204  -1.2072  -1.2022  -1.0883  -1.0862  -1.0087  -1.0079
    -0.9907  -0.9835  -0.8611  -0.8590  -0.8130  -0.8122  -0.7937  -0.7872
    -0.6907  -0.6896  -0.6281  -0.6266  -0.5814  -0.5784  -0.4434  -0.4408
     1.0623   1.0650   1.2492   1.2495   1.4780   1.4806   1.5007   1.5013
     1.5766   1.5768   1.5927   1.5931   1.7319   1.7350   1.7429   1.7494
     1.9691   1.9751   1.9764   1.9789   2.1510   2.1529   2.1842   2.1910
     2.2786   2.2823   2.4128   2.4157   2.4361   2.4375   2.4666   2.4692
     2.5056   2.5092   2.5167   2.5223   2.6257   2.6333   2.8008   2.8031
     2.8489   2.8564   2.8700   2.8806   3.0697   3.0740   3.0909   3.0926
     3.1619   3.1624   3.2565   3.2650   3.3794   3.3803   3.4398   3.4454
     3.4703   3.4789   3.5723   3.5743   3.6465   3.6791   3.7136   3.7154
     3.7756   3.7876   3.8527   3.8692   3.9192   3.9222   3.9470   3.9646
     3.9837   3.9918   4.0226   4.0412   4.0431   4.0568   4.1728   4.1805
     4.2044   4.2112   4.2824   4.2935   4.3259   4.3414   4.3725   4.3983
     4.4041   4.4122   4.4198   4.4319   4.4912   4.5098   4.5243   4.5246
     4.5344   4.5353   4.6483   4.6614   4.6646   4.6931   4.7311   4.7341
     4.7512   4.7548   4.8627   4.8755   5.0332   5.0408   5.0464   5.0485
     5.0517   5.0836   5.1163   5.1671   5.1688   5.1732   5.1877   5.1996
     5.2295   5.2418   5.3096   5.3782   5.3957   5.3981   5.4079   5.4130
     5.4871   5.4915   5.5175   5.5620   5.5762   5.5789   5.6184   5.6296
     5.6431   5.6538   5.6549   5.7523   5.7532   5.7607   5.7908   5.8000
     5.8129   5.8190   5.8372   5.8572   5.8943   5.9071   5.9263   5.9326
     5.9327   5.9523   5.9645   5.9697   6.0101   6.0408   6.0562   6.0603
     6.0857   6.1119   6.1275   6.1866   6.1976   6.2163   6.2221   6.2242
     6.2300   6.2384   6.2446   6.2536   6.2615   6.2672   6.3868   6.3994
     6.4032   6.4050   6.4415   6.4446   6.4786   6.4845   6.4951   6.5025
     6.5159   6.5282   6.5506   6.5534   6.6571   6.6581   6.6771   6.6798
     6.7056   6.7107   6.7653   6.7758   6.9015   6.9051   6.9080   6.9229

          k = 0.5000-0.2887 0.0000 (108310 PWs)   bands (ev):

   -66.9448 -66.9440 -66.9232 -66.9222 -66.8984 -66.8976 -66.8950 -66.8938
   -66.8915 -66.8904 -66.8851 -66.8825 -66.8823 -66.8821 -66.8780 -66.8767
   -66.8683 -66.8669 -66.8659 -66.8644 -66.8626 -66.8604 -66.8597 -66.8591
   -66.6937 -66.6933 -66.6781 -66.6774 -66.6587 -66.6575 -66.6557 -66.6553
   -66.6507 -66.6501 -66.6475 -66.6469 -66.6276 -66.5913 -66.5839 -66.5817
   -66.5759 -66.5740 -66.5394 -66.5379 -66.5375 -66.5323 -66.5297 -66.5261
   -38.7503 -38.7484 -38.7271 -38.7233 -38.6235 -38.6183 -38.6177 -38.6144
   -38.5953 -38.5895 -38.5868 -38.5851 -38.5546 -38.5523 -38.5289 -38.5231
   -38.4935 -38.4868 -38.4830 -38.4801 -38.4766 -38.4714 -38.4560 -38.4517
   -38.4178 -38.4159 -38.4053 -38.4037 -38.3515 -38.3496 -38.3267 -38.3254
   -38.3203 -38.3185 -38.3114 -38.3108 -38.3022 -38.2984 -38.2890 -38.2875
   -38.2831 -38.2831 -38.2793 -38.2726 -38.2621 -38.2607 -38.2547 -38.2272
   -38.2259 -38.2254 -38.2231 -38.2222 -38.2217 -38.2176 -38.2164 -38.2080
   -38.2054 -38.2036 -38.2028 -38.1957 -38.1922 -38.1907 -38.1722 -38.1688
   -38.1666 -38.1591 -38.1581 -38.1484 -38.1427 -38.1401 -38.1401 -38.1358
   -38.1333 -38.1257 -38.1219 -38.1208 -38.0984 -38.0955 -38.0940 -38.0880
   -38.0855 -38.0854 -38.0799 -38.0732 -38.0719 -38.0700 -38.0565 -38.0497
   -38.0380 -38.0362 -38.0199 -38.0140 -38.0126 -38.0072 -38.0034 -38.0026
   -37.9941 -37.9933 -37.9821 -37.9763 -37.9758 -37.9705 -37.9521 -37.9520
   -37.9414 -37.9366 -37.9291 -37.9249 -37.9150 -37.9135 -37.9077 -37.9012
   -37.8976 -37.8958 -37.8914 -37.8877 -37.8777 -37.8745 -37.8703 -37.8688
   -37.8614 -37.8609 -37.8604 -37.8596 -37.8257 -37.8251 -37.8215 -37.8211
   -37.8114 -37.8106 -37.8019 -37.8014 -37.7834 -37.7674 -37.7652 -37.7631
   -37.6560 -37.6466 -37.6452 -37.6353 -37.6313 -37.6249 -37.6245 -37.6113
   -12.2189 -12.2173 -11.8466 -11.8443 -11.8339 -11.8305 -11.6025 -11.5981
   -11.4308 -11.4278 -11.3046 -11.3042 -11.2952 -11.2887 -11.2671 -11.2662
   -11.0870 -11.0844 -11.0650 -11.0647  -9.6609  -8.6711  -8.6709  -8.6365
    -8.6362  -2.9110  -2.8945  -2.8050  -2.7995  -2.7422  -2.7399  -2.7338
    -2.7276  -2.6133  -2.6054  -2.4932  -2.4892  -2.3701  -2.3264  -2.2991
    -2.2929  -2.2382  -2.2134  -2.1758  -2.1486  -2.0993  -2.0759  -1.9939
    -1.9938  -1.9504  -1.7971  -1.7927  -1.6538  -1.6469  -1.6027  -1.5971
    -1.5243  -1.5044  -1.4018  -1.3967  -1.3931  -1.3807  -1.2700  -1.2662
    -1.2223  -1.2204  -1.2072  -1.2022  -1.0883  -1.0862  -1.0087  -1.0079
    -0.9907  -0.9835  -0.8611  -0.8590  -0.8130  -0.8122  -0.7937  -0.7873
    -0.6907  -0.6896  -0.6281  -0.6266  -0.5814  -0.5784  -0.4434  -0.4408
     1.0623   1.0650   1.2492   1.2496   1.4780   1.4806   1.5007   1.5013
     1.5766   1.5768   1.5927   1.5931   1.7319   1.7350   1.7429   1.7494
     1.9691   1.9751   1.9764   1.9789   2.1510   2.1529   2.1842   2.1910
     2.2786   2.2823   2.4128   2.4157   2.4361   2.4375   2.4666   2.4692
     2.5056   2.5092   2.5167   2.5223   2.6257   2.6333   2.8008   2.8031
     2.8489   2.8564   2.8700   2.8806   3.0697   3.0740   3.0909   3.0926
     3.1619   3.1624   3.2565   3.2650   3.3794   3.3803   3.4398   3.4454
     3.4703   3.4789   3.5723   3.5743   3.6465   3.6791   3.7136   3.7154
     3.7756   3.7875   3.8527   3.8692   3.9191   3.9222   3.9470   3.9646
     3.9837   3.9918   4.0226   4.0412   4.0431   4.0569   4.1728   4.1805
     4.2044   4.2112   4.2824   4.2935   4.3259   4.3414   4.3725   4.3983
     4.4041   4.4122   4.4198   4.4319   4.4912   4.5098   4.5243   4.5247
     4.5344   4.5353   4.6483   4.6614   4.6646   4.6931   4.7311   4.7341
     4.7512   4.7548   4.8627   4.8755   5.0332   5.0407   5.0464   5.0485
     5.0517   5.0836   5.1163   5.1671   5.1688   5.1732   5.1877   5.1996
     5.2295   5.2418   5.3096   5.3782   5.3957   5.3981   5.4079   5.4130
     5.4871   5.4915   5.5175   5.5620   5.5762   5.5789   5.6184   5.6296
     5.6431   5.6538   5.6549   5.7523   5.7532   5.7607   5.7908   5.8000
     5.8129   5.8190   5.8371   5.8572   5.8943   5.9071   5.9263   5.9326
     5.9327   5.9523   5.9645   5.9697   6.0100   6.0408   6.0562   6.0604
     6.0857   6.1119   6.1275   6.1866   6.1976   6.2163   6.2221   6.2242
     6.2300   6.2384   6.2446   6.2536   6.2615   6.2672   6.3868   6.3994
     6.4032   6.4050   6.4415   6.4446   6.4786   6.4845   6.4951   6.5025
     6.5159   6.5282   6.5506   6.5534   6.6571   6.6581   6.6771   6.6798
     6.7056   6.7107   6.7653   6.7757   6.9018   6.9049   6.9077   6.9228

          k =-0.5000 0.0000 0.0000 (108308 PWs)   bands (ev):

   -66.9476 -66.9358 -66.9351 -66.9116 -66.9035 -66.9000 -66.8939 -66.8922
   -66.8916 -66.8887 -66.8881 -66.8827 -66.8821 -66.8789 -66.8774 -66.8760
   -66.8721 -66.8673 -66.8646 -66.8639 -66.8622 -66.8605 -66.8597 -66.8593
   -66.6958 -66.6871 -66.6868 -66.6703 -66.6637 -66.6575 -66.6544 -66.6539
   -66.6506 -66.6498 -66.6480 -66.6471 -66.6276 -66.5905 -66.5868 -66.5784
   -66.5764 -66.5748 -66.5388 -66.5386 -66.5374 -66.5328 -66.5290 -66.5263
   -38.7520 -38.7413 -38.7384 -38.7173 -38.6231 -38.6221 -38.6157 -38.6118
   -38.5966 -38.5920 -38.5852 -38.5838 -38.5547 -38.5453 -38.5445 -38.5057
   -38.4994 -38.4883 -38.4868 -38.4814 -38.4800 -38.4639 -38.4597 -38.4475
   -38.4139 -38.4122 -38.4114 -38.4002 -38.3769 -38.3298 -38.3288 -38.3281
   -38.3188 -38.3166 -38.3093 -38.3044 -38.3029 -38.2979 -38.2975 -38.2891
   -38.2842 -38.2788 -38.2759 -38.2738 -38.2607 -38.2530 -38.2524 -38.2500
   -38.2273 -38.2265 -38.2232 -38.2193 -38.2162 -38.2134 -38.2090 -38.2085
   -38.2070 -38.2061 -38.1995 -38.1958 -38.1927 -38.1918 -38.1897 -38.1639
   -38.1623 -38.1571 -38.1557 -38.1480 -38.1441 -38.1419 -38.1370 -38.1342
   -38.1328 -38.1258 -38.1257 -38.1212 -38.1001 -38.0934 -38.0908 -38.0893
   -38.0827 -38.0823 -38.0794 -38.0767 -38.0719 -38.0701 -38.0678 -38.0422
   -38.0378 -38.0371 -38.0183 -38.0180 -38.0141 -38.0091 -38.0071 -38.0025
   -37.9939 -37.9844 -37.9826 -37.9769 -37.9731 -37.9616 -37.9601 -37.9561
   -37.9412 -37.9310 -37.9303 -37.9239 -37.9168 -37.9104 -37.9070 -37.9046
   -37.9027 -37.8940 -37.8933 -37.8872 -37.8774 -37.8723 -37.8715 -37.8672
   -37.8654 -37.8635 -37.8557 -37.8553 -37.8302 -37.8294 -37.8183 -37.8173
   -37.8156 -37.8064 -37.8059 -37.7984 -37.7836 -37.7678 -37.7640 -37.7638
   -37.6534 -37.6518 -37.6407 -37.6387 -37.6310 -37.6252 -37.6229 -37.6113
   -12.2749 -12.0619 -12.0607 -11.8687 -11.7354 -11.7318 -11.6832 -11.5175
   -11.4908 -11.3814 -11.3618 -11.3601 -11.3453 -11.2803 -11.1713 -11.1673
   -11.1458 -11.1445 -11.0581 -11.0370  -9.6609  -8.6797  -8.6523  -8.6521
    -8.6306  -2.9543  -2.8517  -2.8483  -2.8307  -2.7201  -2.7190  -2.6804
    -2.6409  -2.5888  -2.5783  -2.5628  -2.5487  -2.5115  -2.3401  -2.2565
    -2.2367  -2.2072  -2.1759  -2.1366  -2.1268  -2.0836  -2.0798  -2.0452
    -2.0186  -1.9960  -1.8922  -1.7290  -1.7081  -1.6415  -1.6127  -1.5318
    -1.4789  -1.4742  -1.4035  -1.3790  -1.3600  -1.3301  -1.3196  -1.3192
    -1.3082  -1.2627  -1.1450  -1.1435  -1.1006  -1.0984  -1.0760  -1.0315
    -0.9187  -0.8925  -0.8905  -0.8390  -0.8269  -0.8150  -0.7909  -0.7651
[...]
     6.7583   6.8166   6.8551   6.8738   6.8895   6.9463   6.9985   7.0034

          k = 0.2500-0.4330 0.0000 (108308 PWs)   bands (ev):

   -66.9096 -66.8980 -66.8978 -66.8752 -66.8670 -66.8603 -66.8581 -66.8535
   -66.8535 -66.8527 -66.8498 -66.8477 -66.8476 -66.8445 -66.8435 -66.8343
   -66.8311 -66.8261 -66.8232 -66.8211 -66.8196 -66.8186 -66.8122 -66.8117
   -66.6685 -66.6606 -66.6606 -66.6497 -66.6231 -66.6187 -66.6179 -66.6178
   -66.6130 -66.6128 -66.6123 -66.6103 -66.5765 -66.5604 -66.5565 -66.5497
   -66.5331 -66.5323 -66.5026 -66.5021 -66.5011 -66.4979 -66.4944 -66.4918
   -38.7012 -38.6901 -38.6850 -38.6652 -38.5754 -38.5745 -38.5680 -38.5632
   -38.5523 -38.5490 -38.5468 -38.5457 -38.5142 -38.5017 -38.4997 -38.4639
   -38.4606 -38.4550 -38.4524 -38.4467 -38.4386 -38.4351 -38.4309 -38.4280
   -38.3751 -38.3731 -38.3726 -38.3673 -38.3581 -38.3520 -38.3490 -38.3485
   -38.3374 -38.2775 -38.2765 -38.2741 -38.2721 -38.2604 -38.2599 -38.2482
   -38.2473 -38.2437 -38.2430 -38.2362 -38.2221 -38.2179 -38.2128 -38.2110
   -38.2083 -38.2073 -38.2037 -38.2005 -38.1979 -38.1885 -38.1885 -38.1802
   -38.1793 -38.1747 -38.1714 -38.1644 -38.1582 -38.1537 -38.1530 -38.1353
   -38.1288 -38.1256 -38.1219 -38.1197 -38.1181 -38.1178 -38.1086 -38.1067
   -38.0951 -38.0946 -38.0913 -38.0847 -38.0719 -38.0589 -38.0566 -38.0529
   -38.0506 -38.0480 -38.0451 -38.0422 -38.0345 -38.0275 -38.0274 -38.0167
   -38.0162 -38.0154 -37.9752 -37.9746 -37.9682 -37.9650 -37.9620 -37.9619
   -37.9462 -37.9372 -37.9358 -37.9271 -37.9247 -37.9205 -37.9155 -37.9129
   -37.8977 -37.8885 -37.8794 -37.8775 -37.8704 -37.8652 -37.8646 -37.8609
   -37.8534 -37.8524 -37.8496 -37.8424 -37.8382 -37.8345 -37.8316 -37.8316
   -37.8277 -37.8268 -37.8241 -37.8228 -37.7868 -37.7867 -37.7809 -37.7758
   -37.7735 -37.7650 -37.7645 -37.7567 -37.7439 -37.7402 -37.7398 -37.7139
   -37.6114 -37.6107 -37.6009 -37.6007 -37.5905 -37.5857 -37.5826 -37.5725
   -12.1851 -11.9704 -11.9687 -11.7848 -11.6403 -11.6389 -11.6021 -11.4266
   -11.3635 -11.2872 -11.2796 -11.2761 -11.2207 -11.2070 -11.0754 -11.0740
   -11.0064 -11.0057 -10.9628 -10.8889  -9.7058  -9.1705  -9.1216  -9.1208
    -9.0817  -2.9660  -2.9645  -2.8836  -2.7665  -2.7067  -2.6899  -2.6330
    -2.5942  -2.5725  -2.5198  -2.4926  -2.4636  -2.4437  -2.4355  -2.3917
    -2.2150  -2.1245  -2.0816  -2.0647  -2.0390  -1.9972  -1.9930  -1.9397
    -1.9278  -1.8004  -1.7346  -1.6266  -1.5623  -1.5312  -1.4887  -1.4311
    -1.3864  -1.3348  -1.3175  -1.2650  -1.2632  -1.2346  -1.2279  -1.2238
    -1.1714  -1.1162  -1.0460  -1.0405  -1.0006  -0.9956  -0.9603  -0.9220
    -0.8163  -0.8034  -0.7940  -0.7496  -0.7313  -0.6993  -0.6953  -0.6742
    -0.6716  -0.5868  -0.5682  -0.5177  -0.4143  -0.3887  -0.3746  -0.2606
     0.8329   0.8869   0.8898   0.9258   1.1258   1.1286   1.1735   1.1768
     1.1771   1.2353   1.2414   1.2417   1.4370   1.5682   1.5868   1.7814
     1.9350   2.0368   2.0494   2.0708   2.1433   2.1461   2.1587   2.1606
     2.2268   2.3247   2.3295   2.4016   2.4727   2.4746   2.5052   2.5073
     2.5451   2.6053   2.6582   2.6690   2.6751   2.7402   2.7609   2.8013
     2.8823   2.8933   2.9131   2.9249   3.0049   3.0067   3.0258   3.1106
     3.2474   3.3383   3.3597   3.3800   3.4174   3.4250   3.4382   3.4818
     3.5155   3.5308   3.5310   3.5559   3.6312   3.6415   3.6542   3.7369
     3.7716   3.8023   3.8025   3.8493   3.8596   3.9016   3.9234   3.9382
     4.0111   4.0228   4.0919   4.1266   4.1296   4.1522   4.1618   4.1704
     4.1977   4.2028   4.2835   4.2952   4.3135   4.3185   4.3782   4.3787
     4.3913   4.4129   4.4527   4.4554   4.4939   4.4969   4.5338   4.5518
     4.6177   4.6327   4.6525   4.6642   4.6678   4.6985   4.7479   4.7690
     4.7820   4.9266   4.9305   4.9401   4.9644   4.9829   5.0089   5.0240
     5.0660   5.1018   5.1233   5.1805   5.2018   5.2449   5.2718   5.2747
     5.3128   5.3385   5.3835   5.3915   5.4218   5.4304   5.4918   5.5082
     5.5212   5.5253   5.5393   5.5633   5.5899   5.5989   5.6621   5.6721
     5.7043   5.7237   5.8019   5.8046   5.8194   5.8316   5.8440   5.8494
     5.8655   5.8698   5.8906   5.8979   5.9170   5.9549   5.9610   5.9653
     5.9797   6.0054   6.0352   6.0423   6.0753   6.0845   6.1107   6.1294
     6.1455   6.1671   6.1789   6.1986   6.2107   6.2496   6.2537   6.2612
     6.2976   6.3352   6.3457   6.3479   6.3766   6.3884   6.4027   6.4287
     6.4395   6.4946   6.5059   6.5387   6.5673   6.5735   6.5938   6.5966
     6.6157   6.6590   6.6595   6.6903   6.7200   6.7326   6.7382   6.7544
     6.7583   6.8166   6.8551   6.8738   6.8895   6.9463   6.9985   7.0034

     the Fermi energy is     5.2880 ev

!    total energy              =  -12616.49584523 Ry
     total all-electron energy =   -103594.999652 Ry
     estimated scf accuracy    <          1.3E-11 Ry
     smearing contrib. (-TS)   =       0.01013454 Ry
     internal energy E=F+TS    =  -12616.50597977 Ry

     The total energy is F=E-TS. E is the sum of the following terms:
     one-electron contribution =  -67764.91889584 Ry
     hartree contribution      =   33998.20296909 Ry
     xc contribution           =   -1216.13487218 Ry
     ewald contribution        =   26128.72292665 Ry
     DFT-D3 Dispersion         =      -1.09075490 Ry
     one-center paw contrib.   =   -3761.28735260 Ry

     convergence has been achieved in  35 iterations

     negative rho (up, down):  2.203E-04 0.000E+00

     Forces acting on atoms (cartesian axes, Ry/au):

     atom    1 type  1   force =    -0.00017115   -0.00004168    0.00011032
     atom    2 type  1   force =     0.00004944   -0.00016916    0.00010924
     atom    3 type  1   force =    -0.00011787   -0.00020410   -0.00010240
     atom    4 type  1   force =    -0.00001850   -0.00003197   -0.00012878
     atom    5 type  1   force =    -0.00005805    0.00015277   -0.00001717
     atom    6 type  1   force =     0.00016063    0.00002609   -0.00001689
     atom    7 type  2   force =    -0.00001867   -0.00003343    0.00032319
     atom    8 type  2   force =     0.00000968   -0.00001674    0.00004498
     atom    9 type  2   force =    -0.00001891    0.00000027    0.00004492
     atom   10 type  1   force =     0.00018028   -0.00021558    0.00003680
     atom   11 type  1   force =    -0.00027553    0.00004983    0.00003840
     atom   12 type  1   force =    -0.00005014   -0.00008511   -0.00037715
     atom   13 type  1   force =     0.00002350    0.00004160    0.00010331
     atom   14 type  1   force =     0.00009253    0.00008750    0.00010221
     atom   15 type  1   force =     0.00002796    0.00012431    0.00010057
     atom   16 type  2   force =    -0.00001126   -0.00001957    0.00016429
     atom   17 type  2   force =    -0.00003073   -0.00010055    0.00015170
     atom   18 type  2   force =    -0.00007276   -0.00007603    0.00015207
     atom   19 type  1   force =     0.00012151    0.00012650    0.00010913
     atom   20 type  1   force =    -0.00027277    0.00000031    0.00013849
     atom   21 type  1   force =    -0.00017091    0.00004174    0.00010956
     atom   22 type  1   force =    -0.00005757   -0.00015275   -0.00001694
     atom   23 type  1   force =    -0.00010330    0.00012587   -0.00001704
     atom   24 type  1   force =     0.00010687    0.00000035    0.00013072
     atom   25 type  2   force =     0.00003810    0.00000058    0.00032323
     atom   26 type  2   force =    -0.00001928    0.00000010    0.00004472
     atom   27 type  2   force =    -0.00000003   -0.00000039   -0.00009279
     atom   28 type  1   force =     0.00009391   -0.00026342    0.00003802
     atom   29 type  1   force =    -0.00051803   -0.00000074   -0.00047532
     atom   30 type  1   force =     0.00018021    0.00021291    0.00003806
     atom   31 type  1   force =     0.00009361   -0.00008733    0.00010045
     atom   32 type  1   force =    -0.00012239   -0.00003784    0.00009998
     atom   33 type  1   force =     0.00020121   -0.00000110    0.00013269
     atom   34 type  2   force =     0.00002248   -0.00000021    0.00016453
     atom   35 type  2   force =    -0.00007184    0.00007634    0.00015148
     atom   36 type  2   force =    -0.00000002   -0.00000015   -0.00062863
     atom   37 type  1   force =     0.00013677   -0.00023587    0.00013863
     atom   38 type  1   force =     0.00004926    0.00016834    0.00011027
     atom   39 type  1   force =     0.00012188   -0.00012706    0.00011007
     atom   40 type  1   force =    -0.00010380   -0.00012659   -0.00001726
     atom   41 type  1   force =    -0.00005327    0.00009260    0.00013060
     atom   42 type  1   force =     0.00016143   -0.00002656   -0.00001738
     atom   43 type  2   force =    -0.00001939    0.00003278    0.00032330
     atom   44 type  2   force =     0.00000001   -0.00000026   -0.00009272
     atom   45 type  2   force =     0.00000949   -0.00001634    0.00004516
     atom   46 type  1   force =     0.00026039   -0.00044806   -0.00047500
     atom   47 type  1   force =    -0.00027598   -0.00004852    0.00003698
     atom   48 type  1   force =     0.00009688    0.00026352    0.00003673
     atom   49 type  1   force =    -0.00012206    0.00003656    0.00010173
     atom   50 type  1   force =    -0.00009975    0.00017488    0.00013245
     atom   51 type  1   force =     0.00003000   -0.00012389    0.00010138
     atom   52 type  2   force =    -0.00001131    0.00001970    0.00016446
     atom   53 type  2   force =    -0.00000019    0.00000009   -0.00062704
     atom   54 type  2   force =     0.00010193   -0.00002458    0.00015184
     atom   55 type  1   force =    -0.00011734    0.00020345   -0.00010186
     atom   56 type  1   force =     0.00023499    0.00000043   -0.00010191
     atom   57 type  1   force =     0.00013652    0.00023657    0.00013862
     atom   58 type  1   force =    -0.00005322   -0.00009258    0.00013098
     atom   59 type  1   force =    -0.00001848    0.00003237   -0.00012862
     atom   60 type  1   force =     0.00003732   -0.00000007   -0.00012857
     atom   61 type  2   force =     0.00000006    0.00000002   -0.00016423
     atom   62 type  2   force =     0.00000976    0.00001663    0.00004495
     atom   63 type  2   force =     0.00000943    0.00001625    0.00004463
     atom   64 type  1   force =    -0.00004857    0.00008551   -0.00037749
     atom   65 type  1   force =     0.00009858   -0.00000010   -0.00037724
     atom   66 type  1   force =     0.00025825    0.00044894   -0.00047476
     atom   67 type  1   force =    -0.00010116   -0.00017401    0.00013229
     atom   68 type  1   force =     0.00002394   -0.00004062    0.00010277
     atom   69 type  1   force =    -0.00004729    0.00000049    0.00010296
     atom   70 type  2   force =     0.00000019   -0.00000002   -0.00044507
     atom   71 type  2   force =     0.00010222    0.00002415    0.00015180
     atom   72 type  2   force =    -0.00002900    0.00010063    0.00015196
     atom   73 type  3   force =     0.00000006   -0.00000009   -0.00032382
     atom   74 type  4   force =     0.00000019   -0.00000018   -0.00014374
     atom   75 type  4   force =    -0.00011851    0.00020502    0.00007445
     atom   76 type  4   force =     0.00023661    0.00000110    0.00007396
     atom   77 type  4   force =    -0.00011902   -0.00020389    0.00007377

     Total force =     0.002405     Total SCF correction =     0.000025
     Energy error            =      1.5E-05 Ry
     Gradient error          =      6.3E-04 Ry/Bohr

     bfgs converged in  29 scf cycles and  28 bfgs steps
     (criteria: energy <  1.0E-04 Ry, force <  1.0E-03 Ry/Bohr)

     End of BFGS Geometry Optimization

     Final energy             =  -12616.4958452350 Ry

     File tmp/CH4-H31_Rot30_hollow_/CH4-H31_Rot30_hollow_.bfgs deleted, as requested
Begin final coordinates

ATOMIC_POSITIONS (angstrom)
Cr              -1.5967816458        2.7651535404        8.2588984456
Cr               3.1930799429       -0.0002746262        8.2589009470
Cr               0.7795571947        1.3502357411        8.2637850865
Cr               1.6292760841        2.8219930941        6.1299502334
Cr              -0.7453209202        1.2902931214        6.1318247020
Cr               1.4900836618       -0.0003175075        6.1318227072
N               -0.0000999291       -0.0001657255        5.0867752504
N                2.3750695665        1.3714883306        7.1176661945
N                0.0002055639        2.7426165376        7.1176665103
Cr              -1.6504786495        2.8534882856       12.5397698806
Cr               3.2964304079       -0.0026139093       12.5397703996
Cr               0.7119311334        1.2330989977       12.5306710249
Cr               1.5908786944        2.7554837715       10.4464403150
Cr              -0.7816956057        1.3473176391       10.4568420194
Cr               1.5576584134       -0.0033098498       10.4568413993
N               -0.0025818751       -0.0044676440        9.3441489785
N                2.3667809513        1.3694199518       11.5746828738
N                0.0025634390        2.7344032570       11.5746837920
Cr              -3.9719866024        6.8802355819        8.2588998601
Cr               0.8219280289        4.1148074808        8.2544027078
Cr              -1.5967824296        5.4644632790        8.2588989512
Cr              -0.7453218689        6.9393223750        6.1318234492
Cr              -3.1204509006        5.4054201929        6.1318235358
Cr              -0.8846731423        4.1148075852        6.1308612031
N               -2.3754900111        4.1148074190        5.0867757732
N                0.0002051197        5.4869985042        7.1176662922
N               -2.3756862917        6.8580122515        7.1189664443
Cr              -4.0216337621        6.9709036742       12.5397700041
Cr               0.8928274636        4.1148047085       12.5459196624
Cr              -1.6504776526        5.3761318700       12.5397716205
Cr              -0.7816949171        6.8822948861       10.4568445630
Cr              -3.1516473824        5.4654340191       10.4568452842
Cr              -0.8119388569        4.1148101173       10.4652736887
N               -2.3705247364        4.1148090730        9.3441478346
N                0.0025637586        5.4952090013       11.5746902640
N               -2.3756846922        6.8580107027       11.5807202182
Cr               3.1525607316        2.7692162349        8.2544013300
Cr               7.9444516980        0.0002803229        8.2588980265
Cr               5.5307519215        1.3493798092        8.2588987036
Cr               6.3822893694        2.8241975913        6.1318248054
Cr               4.0058611642        1.2912571547        6.1308613513
Cr               6.2414522752        0.0003237053        6.1318251040
N                4.7512710957        0.0001729516        5.0867755755
N                7.1270535641        1.3716050473        7.1189670330
N                4.7517755272        2.7436794576        7.1176655643
Cr               3.1171142665        2.8306070226       12.5459138655
Cr               8.0477981432        0.0026157189       12.5397702783
Cr               5.4811006868        1.2587089771       12.5397708079
Cr               6.3510923469        2.7641824351       10.4568412733
Cr               3.9694950979        1.3542433599       10.4652727438
Cr               6.3090247920        0.0033088119       10.4568450836
N                4.7487889531        0.0044697888        9.3441474643
N                7.1270536805        1.3716038261       11.5807179669
N                4.7577109227        2.7498258634       11.5746830032
Cr               0.7795562048        6.8793791227        8.2637830464
Cr               5.5679389626        4.1148079504        8.2637829691
Cr               3.1525613934        5.4603982081        8.2544020690
Cr               4.0058616218        6.9383583893        6.1308608547
Cr               1.6292763850        5.4076218710        6.1299507902
Cr               3.8684968572        4.1148082892        6.1299503040
N                2.3756830809        4.1148076981        5.0883983138
N                4.7517754359        5.4859362480        7.1176659805
N                2.3750703415        6.8581270744        7.1176669455
Cr               0.7119256049        6.9965158394       12.5306768016
Cr               5.7031942423        4.1148063613       12.5306725145
Cr               3.1171146531        5.3989959902       12.5459195069
Cr               3.9694954437        6.8753675591       10.4652759201
Cr               1.5908788085        5.4741275581       10.4464439882
Cr               3.9452933513        4.1148068386       10.4464423365
N                2.3756833672        4.1148074394        9.3521856010
N                4.7577098101        5.4797878566       11.5746860078
N                2.3667783076        6.8601886642       11.5746901124
C                2.3756873862        4.1147921979       14.1566097005
H                2.3756812449        4.1147927425       15.2742247645
H                2.9997781602        3.0338484091       14.2260700546
H                1.1275106398        4.1147716661       14.2260718554
H                2.9997949080        5.1957271909       14.2260749958
End final coordinates



     Writing all to output data dir tmp/CH4-H31_Rot30_hollow_/CH4-H31_Rot30_hollow_.save/ :
     XML data file, charge density, pseudopotentials, collected wavefunctions
 
     init_run     :     18.53s CPU     19.43s WALL (       1 calls)
     electrons    :  49287.04s CPU  50679.30s WALL (      29 calls)
     update_pot   :     35.04s CPU     36.71s WALL (      28 calls)
     forces       :    293.90s CPU    305.62s WALL (      29 calls)
     force_dftd3  :      6.22s CPU      6.58s WALL (      29 calls)

     Called by init_run:
     wfcinit      :     14.34s CPU     14.80s WALL (       1 calls)
     potinit      :      1.03s CPU      1.17s WALL (       1 calls)
     hinit0       :      0.34s CPU      0.44s WALL (       1 calls)

     Called by electrons:
     c_bands      :  40789.77s CPU  41701.32s WALL (    1214 calls)
     sum_band     :   6687.54s CPU   6939.13s WALL (    1214 calls)
     v_of_rho     :    693.31s CPU    746.69s WALL (    1236 calls)
     newd         :    543.55s CPU    698.81s WALL (    1236 calls)
     PAW_pot      :    443.11s CPU    449.42s WALL (    1264 calls)
     mix_rho      :     98.67s CPU    106.27s WALL (    1214 calls)
     energy_dftd3 :      3.28s CPU      3.29s WALL (      29 calls)

     Called by c_bands:
     init_us_2    :    691.38s CPU    701.35s WALL (    7458 calls)
     cegterg      :  38026.37s CPU  38911.00s WALL (    3642 calls)

     Called by *egterg:
     cdiaghg      :   1438.22s CPU   1456.95s WALL (   13288 calls)
     h_psi        :  18615.79s CPU  19007.24s WALL (   13396 calls)
     s_psi        :   4414.37s CPU   4469.88s WALL (   13396 calls)
     g_psi        :     82.92s CPU     84.06s WALL (    9751 calls)

     Called by h_psi:
     h_psi:calbec :   4410.82s CPU   4468.02s WALL (   13396 calls)
     vloc_psi     :   9606.20s CPU   9783.73s WALL (   13396 calls)
                                        0.00s GPU  (   13396 calls)
     add_vuspsi   :   4457.36s CPU   4513.53s WALL (   13396 calls)

     General routines
     calbec       :   6637.52s CPU   6721.09s WALL (   17470 calls)
     fft          :    553.25s CPU    600.31s WALL (   16364 calls)
     ffts         :      7.13s CPU      8.30s WALL (    2450 calls)
     fftw         :   9364.93s CPU   9528.08s WALL ( 9285514 calls)
     interpolate  :     40.28s CPU     44.72s WALL (    1236 calls)
 
     Parallel routines
 
     PWSCF        :     13h48m CPU     14h12m WALL

 
   This run was terminated on:   5:32:22   5Jun2026            

=------------------------------------------------------------------------------=
   JOB DONE.
=------------------------------------------------------------------------------=
