
     Program PWSCF v.7.5 starts on  6Jun2026 at 22:48:33 

     This program is part of the open-source Quantum ESPRESSO suite
     for quantum simulation of materials; please cite
         "P. Giannozzi et al., J. Phys.:Condens. Matter 21 395502 (2009);
         "P. Giannozzi et al., J. Phys.:Condens. Matter 29 465901 (2017);
         "P. Giannozzi et al., J. Chem. Phys. 152 154105 (2020);
          URL http://www.quantum-espresso.org", 
     in publications or presentations arising from this work. More details at
     http://www.quantum-espresso.org/quote

     Parallel version (MPI & OpenMP), running on      64 processor cores
     Number of MPI processes:                64
     Threads/MPI process:                     1

     MPI processes distributed on     1 nodes
     596778 MiB available memory on the printing compute node when the environment starts
 
     Reading input from generated_inputs/adsorcion/pw-CH4-H31_Rot60_bridge_.in
Warning: card &CELL ignored

     Current dimensions of program PWSCF are:
     Max number of different atomic species (ntypx) = 10
     Max number of k-points (npk) =  40000
     Max angular momentum in pseudopotentials (lmaxx) =  4
     file Cr.pbe-spn-kjpaw_psl.1.0.0.UPF: wavefunction(s)  3S 3P 3D renormalized
     file N.pbe-n-kjpaw_psl.1.0.0.UPF: wavefunction(s)  2S renormalized
     file C.pbe-n-kjpaw_psl.1.0.0.UPF: wavefunction(s)  2S 2P renormalized
     file H.pbe-kjpaw_psl.1.0.0.UPF: wavefunction(s)  1S renormalized
 
     K-points division:     npool     =       4
     R & G space division:  proc/nbgrp/npool/nimage =      16
     Subspace diagonalization in iterative solution of the eigenvalue problem:
     one sub-group per band group will be used
     scalapack distributed-memory algorithm (size of sub-group:  4*  4 procs)

 
     Parallelization info
     --------------------
     sticks:   dense  smooth     PW     G-vecs:    dense   smooth      PW
     Min        1166     388    102               281408    54158    7274
     Max        1167     389    103               281417    54165    7281
     Sum       18661    6217   1639              4502593   866593  116429
 
     Using Slab Decomposition
 


     bravais-lattice index     =            0
     lattice parameter (alat)  =      17.9576  a.u.
     unit-cell volume          =   10952.5767 (a.u.)^3
     number of atoms/cell      =           77
     number of atomic types    =            4
     number of electrons       =       800.00
     number of Kohn-Sham states=          480
     kinetic-energy cutoff     =      70.0000  Ry
     charge density cutoff     =     840.0000  Ry
     scf convergence threshold =      1.0E-08
     mixing beta               =       0.2000
     number of iterations used =            8  plain     mixing
     energy convergence thresh.=      1.0E-04
     force convergence thresh. =      1.0E-03
     Exchange-correlation= SLA  PW   PBX  PBC
                           (   1   4   3   4   0   0   0)
     nstep                     =          200


     celldm(1)=  17.957575  celldm(2)=   0.000000  celldm(3)=   0.000000
     celldm(4)=   0.000000  celldm(5)=   0.000000  celldm(6)=   0.000000

     crystal axes: (cart. coord. in units of alat)
               a(1) = (   1.000000   0.000000   0.000000 )  
               a(2) = (  -0.500000   0.866025   0.000000 )  
               a(3) = (   0.000000   0.000000   2.183951 )  

     reciprocal axes: (cart. coord. in units 2 pi/alat)
               b(1) = (  1.000000  0.577351  0.000000 )  
               b(2) = (  0.000000  1.154701  0.000000 )  
               b(3) = (  0.000000  0.000000  0.457886 )  


     PseudoPot. # 1 for Cr read from file:
     pseudo/Cr.pbe-spn-kjpaw_psl.1.0.0.UPF
     MD5 check sum: 198f1a2427a48552563eee314eba32ba
     Pseudo is Projector augmented-wave + core cor, Zval = 14.0
     Generated using &quot;atomic&quot; code by A. Dal Corso  v.6.3
     Shape of augmentation charge: PSQ
     Using radial grid of 1183 points,  6 beta functions with: 
                l(1) =   0
                l(2) =   0
                l(3) =   1
                l(4) =   1
                l(5) =   2
                l(6) =   2
     Q(r) pseudized with 0 coefficients 


     PseudoPot. # 2 for N  read from file:
     pseudo/N.pbe-n-kjpaw_psl.1.0.0.UPF
     MD5 check sum: 14c48229446f9f2d411169a3abcbc3fa
     Pseudo is Projector augmented-wave + core cor, Zval =  5.0
     Generated using &quot;atomic&quot; code by A. Dal Corso  v.6.3
     Shape of augmentation charge: PSQ
     Using radial grid of 1085 points,  4 beta functions with: 
                l(1) =   0
                l(2) =   0
                l(3) =   1
                l(4) =   1
     Q(r) pseudized with 0 coefficients 


     PseudoPot. # 3 for C  read from file:
     pseudo/C.pbe-n-kjpaw_psl.1.0.0.UPF
     MD5 check sum: 5f16ad9a65e90284d1d834d4ab3b0f7d
     Pseudo is Projector augmented-wave + core cor, Zval =  4.0
     Generated using &quot;atomic&quot; code by A. Dal Corso  v.6.3
     Shape of augmentation charge: PSQ
     Using radial grid of 1073 points,  4 beta functions with: 
                l(1) =   0
                l(2) =   0
                l(3) =   1
                l(4) =   1
     Q(r) pseudized with 0 coefficients 


     PseudoPot. # 4 for H  read from file:
     pseudo/H.pbe-kjpaw_psl.1.0.0.UPF
     MD5 check sum: d81a744832360e4a8af0b0b5b123bc2a
     Pseudo is Projector augmented-wave, Zval =  1.0
     Generated using &quot;atomic&quot; code by A. Dal Corso  v.6.3MaX
     Shape of augmentation charge: PSQ
     Using radial grid of  929 points,  2 beta functions with: 
                l(1) =   0
                l(2) =   0
     Q(r) pseudized with 0 coefficients 


     atomic species   valence    mass     pseudopotential
     Cr               14.00    51.99610     Cr( 1.00)
     N                 5.00    14.00670     N ( 1.00)
     C                 4.00    12.01100     C ( 1.00)
     H                 1.00     1.00800     H ( 1.00)

     No symmetry found



   Cartesian axes

     site n.     atom                  positions (alat units)
         1        Cr     tau(   1) = (  -0.1681591   0.2912601   0.8673998  )
         2        Cr     tau(   2) = (   0.3363182   0.0000000   0.8673998  )
         3        Cr     tau(   3) = (   0.0818405   0.1417518   0.8673993  )
         4        Cr     tau(   4) = (   0.1684970   0.2918454   0.6425759  )
         5        Cr     tau(   5) = (  -0.0815030   0.1411673   0.6425759  )
         6        Cr     tau(   6) = (   0.1630059   0.0000000   0.6425759  )
         7        N      tau(   7) = (   0.0000000   0.0000000   0.5261641  )
         8        N      tau(   8) = (   0.2500000   0.1443376   0.7485579  )
         9        N      tau(   9) = (   0.0000000   0.2886752   0.7485579  )
        10        Cr     tau(  10) = (  -0.1730001   0.2996450   1.3148727  )
        11        Cr     tau(  11) = (   0.3460003   0.0000000   1.3148727  )
        12        Cr     tau(  12) = (   0.0770029   0.1333729   1.3148745  )
        13        Cr     tau(  13) = (   0.1677092   0.2904808   1.0968932  )
        14        Cr     tau(  14) = (  -0.0822901   0.1425306   1.0968938  )
        15        Cr     tau(  15) = (   0.1645802   0.0000000   1.0968938  )
        16        N      tau(  16) = (   0.0000000   0.0000000   0.9808490  )
        17        N      tau(  17) = (   0.2500004   0.1443372   1.2145625  )
        18        N      tau(  18) = (  -0.0000005   0.2886753   1.2145625  )
        19        Cr     tau(  19) = (  -0.4181595   0.7242736   0.8673993  )
        20        Cr     tau(  20) = (   0.0863184   0.4330126   0.8674001  )
        21        Cr     tau(  21) = (  -0.1681593   0.5747652   0.8674001  )
        22        Cr     tau(  22) = (  -0.0815030   0.7248581   0.6425759  )
        23        Cr     tau(  23) = (  -0.3315030   0.5741800   0.6425759  )
        24        Cr     tau(  24) = (  -0.0869941   0.4330127   0.6425759  )
        25        N      tau(  25) = (  -0.2500000   0.4330127   0.5261641  )
        26        N      tau(  26) = (   0.0000000   0.5773503   0.7485581  )
        27        N      tau(  27) = (  -0.2500000   0.7216878   0.7485579  )
        28        Cr     tau(  28) = (  -0.4229971   0.7326525   1.3148745  )
        29        Cr     tau(  29) = (   0.0959968   0.4330121   1.3148749  )
        30        Cr     tau(  30) = (  -0.1729989   0.5663837   1.3148749  )
        31        Cr     tau(  31) = (  -0.0822898   0.7234940   1.0968932  )
        32        Cr     tau(  32) = (  -0.3322908   0.5755446   1.0968932  )
        33        Cr     tau(  33) = (  -0.0854193   0.4330133   1.0968932  )
        34        N      tau(  34) = (  -0.2500001   0.4330128   0.9808490  )
        35        N      tau(  35) = (   0.0000000   0.5773503   1.2145635  )
        36        N      tau(  36) = (  -0.2499996   0.7216882   1.2145625  )
        37        Cr     tau(  37) = (   0.3318407   0.2912602   0.8674001  )
        38        Cr     tau(  38) = (   0.8363191   0.0000000   0.8673993  )
        39        Cr     tau(  39) = (   0.5818409   0.1417524   0.8674001  )
        40        Cr     tau(  40) = (   0.6684970   0.2918454   0.6425759  )
        41        Cr     tau(  41) = (   0.4184970   0.1411673   0.6425759  )
        42        Cr     tau(  42) = (   0.6630059   0.0000000   0.6425759  )
        43        N      tau(  43) = (   0.5000000   0.0000000   0.5261641  )
        44        N      tau(  44) = (   0.7500000   0.1443376   0.7485579  )
        45        N      tau(  45) = (   0.5000000   0.2886751   0.7485581  )
        46        Cr     tau(  46) = (   0.3270011   0.2996417   1.3148749  )
        47        Cr     tau(  47) = (   0.8459942   0.0000000   1.3148745  )
        48        Cr     tau(  48) = (   0.5770021   0.1333704   1.3148749  )
        49        Cr     tau(  49) = (   0.6677091   0.2904819   1.0968932  )
        50        Cr     tau(  50) = (   0.4177102   0.1425314   1.0968932  )
        51        Cr     tau(  51) = (   0.6645817   0.0000000   1.0968932  )
        52        N      tau(  52) = (   0.5000001   0.0000000   0.9808490  )
        53        N      tau(  53) = (   0.7500001   0.1443381   1.2145625  )
        54        N      tau(  54) = (   0.5000000   0.2886751   1.2145635  )
        55        Cr     tau(  55) = (   0.0818409   0.7242730   0.8674001  )
        56        Cr     tau(  56) = (   0.5863184   0.4330128   0.8674001  )
        57        Cr     tau(  57) = (   0.3318409   0.5747653   0.8673998  )
        58        Cr     tau(  58) = (   0.4184970   0.7248581   0.6425759  )
        59        Cr     tau(  59) = (   0.1684970   0.5741800   0.6425759  )
        60        Cr     tau(  60) = (   0.4130059   0.4330127   0.6425759  )
        61        N      tau(  61) = (   0.2500000   0.4330127   0.5261641  )
        62        N      tau(  62) = (   0.5000000   0.5773502   0.7485579  )
        63        N      tau(  63) = (   0.2500000   0.7216878   0.7485579  )
        64        Cr     tau(  64) = (   0.0770021   0.7326550   1.3148749  )
        65        Cr     tau(  65) = (   0.5959968   0.4330133   1.3148749  )
        66        Cr     tau(  66) = (   0.3269999   0.5663804   1.3148727  )
        67        Cr     tau(  67) = (   0.4177099   0.7234948   1.0968938  )
        68        Cr     tau(  68) = (   0.1677091   0.5755435   1.0968932  )
        69        Cr     tau(  69) = (   0.4145807   0.4330121   1.0968932  )
        70        N      tau(  70) = (   0.2499999   0.4330126   0.9808490  )
        71        N      tau(  71) = (   0.4999995   0.5773501   1.2145625  )
        72        N      tau(  72) = (   0.2500001   0.7216873   1.2145625  )
        73        C      tau(  73) = (   0.2114989   0.3663269   1.5635703  )
        74        H      tau(  74) = (   0.2115066   0.3663225   1.6782720  )
        75        H      tau(  75) = (   0.3051499   0.3122575   1.5253282  )
        76        H      tau(  76) = (   0.1178429   0.3122575   1.5253406  )
        77        H      tau(  77) = (   0.2114964   0.4744701   1.5253406  )

     --------------------------------------------
     DFT-D3 Dispersion Correction (3-body terms):
     --------------------------------------------
       Reference C6 values for interpolation: 

         atom   Coordination number   C6
         H          0.912             6.05
         H          0.000            15.18
         C          0.000            98.23
         C          0.987            86.49
         C          1.998            58.72
         C          2.999            51.56
         C          3.984            36.41
         N          0.000            50.54
         N          0.994            44.25
         N          2.014            39.35
         N          2.990            31.16
         Cr         0.000          1381.48
         Cr         1.827           571.38
         Cr        10.619           306.69

       Values used:

         atom   Coordination number  R0_AB[au]  C6      C8
         Cr        12.627            3.252    306.69  28303.74
         Cr        12.627            3.252    306.69  28303.74
         Cr        12.627            3.252    306.69  28303.74
         Cr        10.143            3.252    306.69  28303.74
         Cr        10.143            3.252    306.69  28303.74
         Cr        10.143            3.252    306.69  28303.74
         N          3.022            2.478     31.29    690.36
         N          6.023            2.478     31.16    687.49
         N          6.023            2.478     31.16    687.49
         Cr         9.072            3.252    306.69  28303.74
         Cr         9.072            3.252    306.69  28303.74
         Cr         9.091            3.252    306.69  28303.74
         Cr        12.749            3.252    306.69  28303.74
         Cr        12.748            3.252    306.69  28303.74
         Cr        12.748            3.252    306.69  28303.74
         N          6.047            2.478     31.16    687.49
         N          6.033            2.478     31.16    687.49
         N          6.033            2.478     31.16    687.49
         Cr        12.627            3.252    306.69  28303.74
         Cr        12.627            3.252    306.69  28303.74
         Cr        12.627            3.252    306.69  28303.74
         Cr        10.143            3.252    306.69  28303.74
         Cr        10.143            3.252    306.69  28303.74
         Cr        10.143            3.252    306.69  28303.74
         N          3.022            2.478     31.29    690.36
         N          6.023            2.478     31.16    687.49
         N          6.023            2.478     31.16    687.49
         Cr         9.071            3.252    306.69  28303.74
         Cr         9.393            3.252    306.69  28303.74
         Cr         9.071            3.252    306.69  28303.74
         Cr        12.748            3.252    306.69  28303.74
         Cr        12.748            3.252    306.69  28303.74
         Cr        12.748            3.252    306.69  28303.74
         N          6.047            2.478     31.16    687.49
         N          6.032            2.478     31.16    687.49
         N          6.032            2.478     31.16    687.49
         Cr        12.627            3.252    306.69  28303.74
         Cr        12.627            3.252    306.69  28303.74
         Cr        12.627            3.252    306.69  28303.74
         Cr        10.143            3.252    306.69  28303.74
         Cr        10.143            3.252    306.69  28303.74
         Cr        10.143            3.252    306.69  28303.74
         N          3.022            2.478     31.29    690.36
         N          6.023            2.478     31.16    687.49
         N          6.023            2.478     31.16    687.49
         Cr         9.575            3.252    306.69  28303.74
         Cr         9.071            3.252    306.69  28303.74
         Cr         9.072            3.252    306.69  28303.74
         Cr        12.748            3.252    306.69  28303.74
         Cr        12.748            3.252    306.69  28303.74
         Cr        12.748            3.252    306.69  28303.74
         N          6.047            2.478     31.16    687.49
         N          6.032            2.478     31.16    687.49
         N          6.032            2.478     31.16    687.49
         Cr        12.627            3.252    306.69  28303.74
         Cr        12.627            3.252    306.69  28303.74
         Cr        12.627            3.252    306.69  28303.74
         Cr        10.143            3.252    306.69  28303.74
         Cr        10.143            3.252    306.69  28303.74
         Cr        10.143            3.252    306.69  28303.74
         N          3.022            2.478     31.29    690.36
         N          6.023            2.478     31.16    687.49
         N          6.023            2.478     31.16    687.49
         Cr         9.072            3.252    306.69  28303.74
         Cr         9.072            3.252    306.69  28303.74
         Cr         9.122            3.252    306.69  28303.74
         Cr        12.748            3.252    306.69  28303.74
         Cr        12.748            3.252    306.69  28303.74
         Cr        12.748            3.252    306.69  28303.74
         N          6.047            2.478     31.16    687.49
         N          6.032            2.478     31.16    687.49
         N          6.032            2.478     31.16    687.49
         C          4.450            2.750     36.42   1053.34
         H          0.997            2.062      6.18     74.75
         H          1.280            2.062      6.07     73.38
         H          1.065            2.062      6.13     74.14
         H          1.081            2.062      6.12     74.04

         Molecular C6 ( Ry / a.u.^6 ) =    974387.89


     number of k points=    10  Methfessel-Paxton smearing, width (Ry)=  0.0200
                       cart. coord. in units 2pi/alat
        k(    1) = (   0.0000000   0.0000000   0.0000000), wk =   0.1250000
        k(    2) = (   0.0000000   0.2886753   0.0000000), wk =   0.2500000
        k(    3) = (   0.0000000  -0.5773505   0.0000000), wk =   0.1250000
        k(    4) = (   0.2500000   0.4330129   0.0000000), wk =   0.2500000
        k(    5) = (  -0.2500000   0.1443376   0.0000000), wk =   0.2500000
        k(    6) = (   0.2500000   0.1443376   0.0000000), wk =   0.2500000
        k(    7) = (   0.5000000  -0.2886753   0.0000000), wk =   0.1250000
        k(    8) = (  -0.5000000  -0.2886753   0.0000000), wk =   0.1250000
        k(    9) = (  -0.2500000   0.4330129   0.0000000), wk =   0.2500000
        k(   10) = (   0.5000000  -0.0000000   0.0000000), wk =   0.2500000

     Dense  grid:  4502593 G-vectors     FFT dimensions: ( 180, 180, 375)

     Smooth grid:   866593 G-vectors     FFT dimensions: (  96,  96, 216)

     Estimated max dynamical RAM per process >     867.27 MB

     Estimated total dynamical RAM >      50.98 GB

     Atomic positions and unit cell read from directory:
     tmp/CH4-H31_Rot60_bridge_/CH4-H31_Rot60_bridge_.save/
     Atomic positions from file used, from input discarded
 

     The initial density is read from file :
     tmp/CH4-H31_Rot60_bridge_/CH4-H31_Rot60_bridge_.save/charge-density


     negative rho (up, down):  2.088E-04 0.000E+00
     Starting wfcs from file
     Checking if some PAW data can be deallocated... 
     Calculation restarted from scf iteration #    34

     total cpu time spent up to now is        6.0 secs

     Self-consistent Calculation

     iteration # 34     ecut=    70.00 Ry     beta= 0.20
     Calculation restarted from kpoint #     3
     Davidson diagonalization with overlap
     c_bands:  4 eigenvalues not converged
     ethr =  1.98E-13,  avg # of iterations = 12.8

     negative rho (up, down):  2.088E-04 0.000E+00

     total cpu time spent up to now is       71.1 secs

     End of self-consistent calculation

          k = 0.0000 0.0000 0.0000 (108303 PWs)   bands (ev):

   -66.9115 -66.8756 -66.8720 -66.8697 -66.8676 -66.8630 -66.8616 -66.8588
   -66.8431 -66.8384 -66.8379 -66.8361 -66.8309 -66.8295 -66.8281 -66.8268
   -66.8259 -66.8229 -66.8220 -66.8094 -66.8083 -66.8045 -66.8031 -66.7958
   -66.6657 -66.6429 -66.6428 -66.6414 -66.6168 -66.6166 -66.6134 -66.6049
   -66.6028 -66.6019 -66.5973 -66.5964 -66.5680 -66.5413 -66.5283 -66.5272
   -66.5239 -66.5026 -66.4872 -66.4782 -66.4758 -66.4713 -66.4685 -66.4669
   -38.7053 -38.6790 -38.6761 -38.6660 -38.5815 -38.5811 -38.5782 -38.5376
   -38.5371 -38.5247 -38.5184 -38.5149 -38.5144 -38.4731 -38.4687 -38.4670
   -38.4624 -38.4615 -38.4605 -38.4317 -38.4296 -38.4239 -38.3891 -38.3868
   -38.3850 -38.3809 -38.3805 -38.3769 -38.3700 -38.3362 -38.3296 -38.3279
   -38.2985 -38.2880 -38.2836 -38.2780 -38.2771 -38.2731 -38.2476 -38.2446
   -38.2437 -38.2253 -38.2178 -38.2141 -38.2036 -38.2021 -38.2015 -38.1998
   -38.1857 -38.1851 -38.1810 -38.1798 -38.1766 -38.1723 -38.1671 -38.1645
   -38.1556 -38.1537 -38.1513 -38.1500 -38.1493 -38.1478 -38.1365 -38.1360
   -38.1289 -38.1269 -38.1254 -38.1199 -38.1168 -38.1118 -38.1028 -38.0768
   -38.0674 -38.0656 -38.0639 -38.0551 -38.0550 -38.0502 -38.0410 -38.0383
   -38.0356 -38.0318 -38.0268 -38.0213 -38.0196 -38.0107 -38.0026 -37.9965
   -37.9943 -37.9917 -37.9828 -37.9556 -37.9523 -37.9515 -37.9467 -37.9464
   -37.9395 -37.9393 -37.9269 -37.9213 -37.9190 -37.9083 -37.9049 -37.9048
   -37.8753 -37.8742 -37.8648 -37.8612 -37.8590 -37.8482 -37.8453 -37.8425
   -37.8418 -37.8397 -37.8361 -37.8343 -37.8283 -37.8173 -37.8150 -37.8134
   -37.8108 -37.8101 -37.8060 -37.7999 -37.7774 -37.7771 -37.7736 -37.7672
   -37.7644 -37.7633 -37.7397 -37.7391 -37.7366 -37.7264 -37.7158 -37.7098
   -37.6329 -37.5990 -37.5829 -37.5778 -37.5677 -37.5531 -37.5469 -37.5409
   -12.3621 -11.9038 -11.6697 -11.6625 -11.6595 -11.5405 -11.5236 -11.4815
   -11.4462 -11.4454 -11.4442 -11.2144 -11.1961 -11.1642 -11.1446 -11.0811
   -11.0752 -11.0611 -10.8578 -10.7716  -9.3257  -9.1403  -9.1382  -9.1359
    -9.0321  -2.8814  -2.8748  -2.8635  -2.6735  -2.6392  -2.6241  -2.5573
    -2.4325  -2.4187  -2.4131  -2.4081  -2.4023  -2.3750  -2.3065  -2.2758
    -2.2728  -2.2436  -2.1592  -2.1526  -2.1506  -2.1311  -2.1125  -1.8871
    -1.6643  -1.6273  -1.6171  -1.4413  -1.4234  -1.3899  -1.3712  -1.3403
    -1.3361  -1.3104  -1.3043  -1.2969  -1.2892  -1.2026  -1.1927  -1.1785
    -1.1701  -1.1552  -1.1189  -1.1129  -1.0837  -1.0531  -0.9363  -0.8895
    -0.8259  -0.8096  -0.7586  -0.7479  -0.7301  -0.7156  -0.6995  -0.6943
    -0.6874  -0.6658  -0.5490  -0.4909  -0.4713  -0.2652  -0.2403  -0.2345
     0.6617   0.9264   0.9269   0.9283   1.1833   1.1852   1.1877   1.2018
     1.2034   1.2082   1.2103   1.2119   1.3136   1.6702   1.6831   1.6910
     1.8505   1.8602   1.8884   2.0833   2.0884   2.0920   2.1574   2.2898
     2.3105   2.3272   2.4047   2.4240   2.4264   2.5228   2.5379   2.5402
     2.5531   2.5678   2.5701   2.5962   2.6098   2.6117   2.6513   2.8011
     2.8136   2.8231   2.8376   2.8467   3.2463   3.2704   3.2779   3.3757
     3.3771   3.4319   3.4464   3.4524   3.4599   3.4683   3.4730   3.5486
     3.5651   3.5730   3.5994   3.6205   3.6786   3.7287   3.7358   3.7419
     3.7720   3.7837   3.7865   3.8136   3.8291   3.8371   3.8495   3.8516
     3.8579   3.8670   4.0614   4.0959   4.1181   4.2349   4.2411   4.2525
     4.2598   4.2724   4.3453   4.3769   4.4157   4.4268   4.4327   4.4614
     4.4742   4.4911   4.5143   4.5343   4.5367   4.5470   4.5475   4.5593
     4.6082   4.6099   4.6936   4.7577   4.7595   4.8470   4.8566   4.8666
     4.8933   4.9027   4.9082   4.9187   4.9446   4.9895   4.9952   5.0154
     5.0242   5.0333   5.0683   5.0713   5.1546   5.1911   5.2217   5.2288
     5.2699   5.2971   5.5037   5.5120   5.5154   5.5413   5.6006   5.6094
     5.6337   5.6397   5.6536   5.6852   5.7025   5.7058   5.7484   5.7638
     5.7878   5.7941   5.7981   5.8057   5.8358   5.8386   5.8418   5.8568
     5.9072   5.9302   5.9396   5.9460   5.9696   5.9738   5.9954   5.9999
     6.0334   6.0550   6.0760   6.0944   6.0969   6.1023   6.1108   6.1208
     6.1342   6.1467   6.1619   6.1825   6.1963   6.2307   6.2378   6.2430
     6.3019   6.3148   6.3155   6.3250   6.3277   6.3697   6.3836   6.3924
     6.3945   6.3961   6.4077   6.4354   6.4385   6.4723   6.4908   6.5683
     6.6768   6.6792   6.6875   6.6887   6.6912   6.7208   6.7403   6.7472
     6.7819   6.7995   6.8153   6.8219   6.8374   6.8561   6.9171   6.9494

          k = 0.0000 0.2887 0.0000 (108355 PWs)   bands (ev):

   -66.9082 -66.8853 -66.8765 -66.8742 -66.8612 -66.8576 -66.8563 -66.8519
   -66.8442 -66.8411 -66.8403 -66.8370 -66.8331 -66.8325 -66.8306 -66.8290
   -66.8233 -66.8202 -66.8170 -66.8099 -66.8089 -66.8041 -66.8032 -66.7969
   -66.6632 -66.6475 -66.6433 -66.6423 -66.6149 -66.6138 -66.6102 -66.6055
   -66.6041 -66.6020 -66.5985 -66.5976 -66.5675 -66.5409 -66.5312 -66.5270
   -66.5235 -66.5020 -66.4851 -66.4779 -66.4760 -66.4718 -66.4691 -66.4672
   -38.7013 -38.6811 -38.6724 -38.6645 -38.5765 -38.5751 -38.5719 -38.5460
   -38.5406 -38.5326 -38.5267 -38.5240 -38.5104 -38.4852 -38.4730 -38.4693
   -38.4581 -38.4550 -38.4538 -38.4321 -38.4281 -38.4164 -38.4118 -38.4058
   -38.3798 -38.3782 -38.3768 -38.3544 -38.3485 -38.3420 -38.3394 -38.3325
   -38.2930 -38.2897 -38.2839 -38.2729 -38.2661 -38.2626 -38.2482 -38.2441
   -38.2419 -38.2332 -38.2233 -38.2194 -38.2024 -38.2006 -38.1993 -38.1986
   -38.1928 -38.1901 -38.1880 -38.1800 -38.1772 -38.1763 -38.1694 -38.1669
   -38.1651 -38.1625 -38.1582 -38.1521 -38.1464 -38.1363 -38.1301 -38.1264
   -38.1257 -38.1235 -38.1192 -38.1176 -38.1110 -38.1038 -38.1002 -38.0794
   -38.0696 -38.0690 -38.0635 -38.0587 -38.0551 -38.0532 -38.0498 -38.0422
   -38.0362 -38.0346 -38.0271 -38.0226 -38.0160 -38.0117 -38.0081 -38.0040
   -37.9984 -37.9926 -37.9612 -37.9575 -37.9551 -37.9506 -37.9474 -37.9406
   -37.9373 -37.9312 -37.9221 -37.9200 -37.9175 -37.9099 -37.9080 -37.9048
   -37.8787 -37.8745 -37.8656 -37.8607 -37.8561 -37.8504 -37.8458 -37.8430
   -37.8413 -37.8377 -37.8361 -37.8317 -37.8263 -37.8197 -37.8171 -37.8149
   -37.8124 -37.8087 -37.8059 -37.8018 -37.7779 -37.7771 -37.7738 -37.7638
   -37.7625 -37.7590 -37.7486 -37.7420 -37.7344 -37.7271 -37.7164 -37.7101
   -37.6319 -37.5957 -37.5791 -37.5779 -37.5676 -37.5578 -37.5484 -37.5430
   -12.2977 -11.8686 -11.8585 -11.7202 -11.7097 -11.5742 -11.5004 -11.4789
   -11.4051 -11.4004 -11.3353 -11.1982 -11.1765 -11.1621 -11.1091 -11.0981
   -11.0842 -11.0261 -10.8919 -10.8080  -9.3258  -9.1423  -9.1399  -9.1203
    -9.0456  -2.8466  -2.8408  -2.8066  -2.6971  -2.6390  -2.6023  -2.5796
    -2.5711  -2.5618  -2.4941  -2.4435  -2.4233  -2.3164  -2.2351  -2.2145
    -2.1986  -2.1909  -2.1570  -2.1211  -2.0713  -2.0484  -2.0065  -1.8850
    -1.8110  -1.6447  -1.6230  -1.5751  -1.5008  -1.4677  -1.4293  -1.3756
    -1.3383  -1.3339  -1.2911  -1.2689  -1.2547  -1.2255  -1.2003  -1.1820
    -1.1657  -1.1356  -1.1171  -1.0993  -1.0789  -0.9771  -0.9175  -0.8829
    -0.8536  -0.8139  -0.7692  -0.7536  -0.7186  -0.7026  -0.6970  -0.6767
    -0.6499  -0.6288  -0.5695  -0.4715  -0.4494  -0.3335  -0.2753  -0.2636
     0.7505   0.9219   0.9260   0.9267   1.1557   1.1574   1.1590   1.1830
     1.2136   1.2164   1.2211   1.2758   1.3712   1.6270   1.7053   1.7218
     1.8776   1.8943   1.9391   2.0938   2.0999   2.1303   2.1697   2.2569
     2.2691   2.3841   2.3962   2.4079   2.4320   2.5229   2.5350   2.5583
     2.5672   2.5735   2.6201   2.6463   2.6621   2.6672   2.7135   2.7395
     2.8353   2.8407   2.8493   2.9340   3.1029   3.1743   3.2558   3.2983
     3.3126   3.3225   3.3340   3.3671   3.4610   3.4683   3.4920   3.5076
     3.5146   3.5324   3.6323   3.6581   3.6764   3.7039   3.7075   3.7568
     3.7833   3.8043   3.8157   3.8237   3.8573   3.8786   3.8861   3.9309
     4.0809   4.0919   4.1084   4.1147   4.1420   4.1570   4.1729   4.2427
     4.2654   4.2794   4.3174   4.3359   4.3505   4.3829   4.3927   4.4069
     4.4220   4.4372   4.4760   4.4910   4.5190   4.5422   4.5588   4.5632
     4.5974   4.6345   4.6543   4.7297   4.7692   4.8043   4.8242   4.8578
     4.8907   4.9158   4.9364   4.9627   4.9813   5.0220   5.0315   5.0502
     5.0606   5.0797   5.0918   5.1326   5.1563   5.2140   5.2392   5.2527
     5.2722   5.3018   5.3884   5.4432   5.4547   5.4707   5.5212   5.5632
     5.5706   5.5845   5.5949   5.6182   5.6493   5.6651   5.6913   5.6985
     5.7161   5.7860   5.8010   5.8243   5.8331   5.8503   5.8643   5.8808
     5.8944   5.9024   5.9143   5.9215   5.9702   5.9787   5.9960   6.0099
     6.0182   6.0433   6.0634   6.0695   6.0829   6.0988   6.1152   6.1232
     6.1350   6.1467   6.1668   6.1727   6.1840   6.1992   6.2468   6.3035
     6.3159   6.3226   6.3551   6.3689   6.3757   6.3820   6.3903   6.4217
     6.4357   6.4411   6.4534   6.4877   6.5040   6.5176   6.5434   6.5545
     6.5608   6.5832   6.6389   6.6576   6.6696   6.7202   6.7424   6.7588
     6.7693   6.8065   6.8236   6.8343   6.8541   6.8852   6.9194   6.9389

          k = 0.0000-0.5774 0.0000 (108310 PWs)   bands (ev):

   -66.8993 -66.8981 -66.8786 -66.8762 -66.8564 -66.8529 -66.8502 -66.8482
   -66.8459 -66.8451 -66.8413 -66.8389 -66.8343 -66.8341 -66.8334 -66.8311
   -66.8214 -66.8170 -66.8142 -66.8112 -66.8097 -66.8048 -66.8010 -66.7992
   -66.6569 -66.6558 -66.6437 -66.6429 -66.6125 -66.6108 -66.6072 -66.6064
   -66.6038 -66.6034 -66.6006 -66.5988 -66.5670 -66.5401 -66.5341 -66.5268
   -66.5233 -66.5015 -66.4826 -66.4780 -66.4764 -66.4721 -66.4700 -66.4675
   -38.6919 -38.6899 -38.6684 -38.6615 -38.5668 -38.5658 -38.5633 -38.5600
   -38.5422 -38.5405 -38.5378 -38.5340 -38.5029 -38.5006 -38.4752 -38.4718
   -38.4451 -38.4437 -38.4418 -38.4383 -38.4371 -38.4328 -38.4159 -38.4135
   -38.3669 -38.3654 -38.3610 -38.3592 -38.3541 -38.3512 -38.3356 -38.3338
   -38.3003 -38.2983 -38.2656 -38.2614 -38.2598 -38.2555 -38.2435 -38.2399
   -38.2335 -38.2317 -38.2306 -38.2249 -38.2165 -38.2120 -38.1984 -38.1969
   -38.1946 -38.1943 -38.1880 -38.1874 -38.1791 -38.1759 -38.1742 -38.1725
   -38.1693 -38.1575 -38.1544 -38.1538 -38.1516 -38.1494 -38.1271 -38.1225
   -38.1192 -38.1131 -38.1097 -38.1059 -38.1027 -38.0959 -38.0918 -38.0867
   -38.0807 -38.0783 -38.0682 -38.0657 -38.0531 -38.0496 -38.0455 -38.0443
   -38.0389 -38.0350 -38.0265 -38.0250 -38.0228 -38.0177 -38.0145 -38.0043
   -37.9962 -37.9923 -37.9609 -37.9580 -37.9539 -37.9471 -37.9442 -37.9405
   -37.9296 -37.9274 -37.9195 -37.9177 -37.9175 -37.9104 -37.9021 -37.8925
   -37.8893 -37.8760 -37.8713 -37.8626 -37.8527 -37.8516 -37.8462 -37.8435
   -37.8417 -37.8369 -37.8340 -37.8287 -37.8245 -37.8208 -37.8192 -37.8181
   -37.8137 -37.8069 -37.8054 -37.8043 -37.7775 -37.7761 -37.7678 -37.7667
   -37.7606 -37.7602 -37.7506 -37.7482 -37.7313 -37.7286 -37.7170 -37.7106
   -37.6306 -37.5914 -37.5753 -37.5732 -37.5714 -37.5658 -37.5485 -37.5450
   -12.1200 -12.1176 -11.7546 -11.7450 -11.7353 -11.7326 -11.5016 -11.4851
   -11.3318 -11.3289 -11.2219 -11.2184 -11.2123 -11.1730 -11.1203 -11.1180
   -10.9970 -10.9733 -10.9091 -10.9054  -9.3258  -9.1451  -9.1427  -9.0822
    -9.0798  -2.8164  -2.8144  -2.7450  -2.6987  -2.6544  -2.6339  -2.6297
    -2.6264  -2.5400  -2.5015  -2.4666  -2.3960  -2.3849  -2.2331  -2.2162
    -2.1782  -2.1680  -2.1213  -2.0948  -1.9870  -1.9644  -1.9344  -1.8785
    -1.8024  -1.7057  -1.6951  -1.6154  -1.5560  -1.5435  -1.4900  -1.4286
    -1.4210  -1.3397  -1.3076  -1.3015  -1.2747  -1.2234  -1.1874  -1.1521
    -1.1169  -1.1086  -1.0989  -1.0842  -0.9772  -0.9746  -0.9168  -0.8989
    -0.8663  -0.8555  -0.7796  -0.7476  -0.7313  -0.7070  -0.6660  -0.6619
    -0.6108  -0.5861  -0.5308  -0.5062  -0.4399  -0.4142  -0.2985  -0.2853
     0.8707   0.8739   0.9189   0.9194   1.1684   1.1705   1.1812   1.1848
     1.1992   1.1999   1.2417   1.2451   1.4763   1.4901   1.7242   1.7449
     2.0012   2.0121   2.0246   2.0309   2.1234   2.1370   2.1635   2.1784
     2.3026   2.3112   2.4688   2.4780   2.4814   2.4872   2.5275   2.5390
     2.5742   2.5787   2.5834   2.5852   2.6848   2.6937   2.8295   2.8445
     2.8572   2.8606   2.9252   2.9275   3.1248   3.1319   3.1415   3.1484
     3.2006   3.2064   3.3027   3.3217   3.4229   3.4263   3.4745   3.5071
     3.5258   3.5299   3.6112   3.6218   3.6963   3.7127   3.7446   3.7653
     3.8213   3.8275   3.8799   3.8880   3.9276   3.9884   3.9958   4.0039
     4.0372   4.0477   4.0655   4.0857   4.1033   4.1202   4.2093   4.2297
     4.2375   4.2502   4.3184   4.3512   4.3824   4.4036   4.4179   4.4227
     4.4364   4.4584   4.4664   4.4855   4.4992   4.5307   4.5386   4.5623
     4.5650   4.5909   4.7004   4.7058   4.7203   4.7322   4.7477   4.7581
     4.7726   4.7946   4.8998   4.9389   5.0438   5.0909   5.0945   5.1087
     5.1262   5.1513   5.1588   5.1840   5.2111   5.2274   5.2440   5.2501
     5.2768   5.2978   5.3426   5.4284   5.4431   5.4490   5.4577   5.4666
     5.5043   5.5235   5.5495   5.6192   5.6338   5.6485   5.6627   5.6730
     5.6831   5.7059   5.7144   5.8077   5.8212   5.8289   5.8447   5.8528
     5.8636   5.8896   5.8951   5.9215   5.9505   5.9580   5.9769   5.9850
     5.9982   6.0079   6.0237   6.0481   6.0915   6.0972   6.1095   6.1235
     6.1400   6.1616   6.1737   6.2194   6.2607   6.2767   6.2797   6.2902
     6.2990   6.3037   6.3309   6.3362   6.3420   6.3894   6.4509   6.4556
     6.4721   6.4892   6.5004   6.5232   6.5335   6.5369   6.5404   6.5451
     6.5591   6.6054   6.6262   6.6420   6.6980   6.7234   6.7312   6.7544
     6.7667   6.7798   6.8420   6.8577   6.9527   6.9586   6.9798   6.9883

          k = 0.2500 0.4330 0.0000 (108308 PWs)   bands (ev):

   -66.9018 -66.8919 -66.8879 -66.8664 -66.8615 -66.8545 -66.8493 -66.8483
   -66.8454 -66.8428 -66.8403 -66.8391 -66.8380 -66.8345 -66.8336 -66.8257
   -66.8247 -66.8164 -66.8138 -66.8123 -66.8094 -66.8041 -66.8015 -66.7991
   -66.6586 -66.6505 -66.6504 -66.6395 -66.6139 -66.6092 -66.6078 -66.6066
   -66.6042 -66.6019 -66.6010 -66.5992 -66.5670 -66.5398 -66.5342 -66.5279
   -66.5222 -66.5016 -66.4828 -66.4789 -66.4749 -66.4720 -66.4701 -66.4678
   -38.6937 -38.6848 -38.6756 -38.6575 -38.5694 -38.5678 -38.5602 -38.5553
   -38.5439 -38.5420 -38.5377 -38.5343 -38.5036 -38.4930 -38.4916 -38.4555
   -38.4531 -38.4450 -38.4433 -38.4388 -38.4284 -38.4265 -38.4219 -38.4182
   -38.3666 -38.3658 -38.3634 -38.3569 -38.3503 -38.3429 -38.3404 -38.3368
   -38.3244 -38.2691 -38.2678 -38.2648 -38.2625 -38.2511 -38.2491 -38.2376
   -38.2370 -38.2335 -38.2289 -38.2235 -38.2132 -38.2026 -38.2012 -38.1987
   -38.1982 -38.1938 -38.1905 -38.1883 -38.1790 -38.1784 -38.1778 -38.1701
   -38.1647 -38.1641 -38.1585 -38.1536 -38.1449 -38.1408 -38.1388 -38.1216
   -38.1143 -38.1137 -38.1088 -38.1077 -38.1038 -38.0949 -38.0934 -38.0821
   -38.0795 -38.0785 -38.0724 -38.0636 -38.0567 -38.0463 -38.0454 -38.0405
   -38.0367 -38.0353 -38.0334 -38.0301 -38.0232 -38.0143 -38.0120 -38.0043
   -37.9963 -37.9927 -37.9608 -37.9587 -37.9557 -37.9480 -37.9464 -37.9387
   -37.9342 -37.9228 -37.9215 -37.9144 -37.9118 -37.9064 -37.9034 -37.9015
   -37.8866 -37.8741 -37.8646 -37.8641 -37.8573 -37.8509 -37.8487 -37.8479
   -37.8382 -37.8364 -37.8330 -37.8323 -37.8239 -37.8229 -37.8184 -37.8168
   -37.8117 -37.8069 -37.8053 -37.8034 -37.7787 -37.7755 -37.7711 -37.7654
   -37.7625 -37.7557 -37.7532 -37.7463 -37.7321 -37.7277 -37.7173 -37.7104
   -37.6306 -37.5902 -37.5808 -37.5734 -37.5678 -37.5629 -37.5515 -37.5442
   -12.1759 -11.9623 -11.9614 -11.7740 -11.6347 -11.6287 -11.5939 -11.4355
   -11.3526 -11.2772 -11.2702 -11.2665 -11.2083 -11.1979 -11.0935 -11.0487
   -10.9942 -10.9937 -10.9558 -10.8763  -9.3258  -9.1594  -9.1102  -9.1098
    -9.0703  -2.8646  -2.7841  -2.7512  -2.7297  -2.6506  -2.6221  -2.5821
    -2.5589  -2.5145  -2.4790  -2.4589  -2.4499  -2.4407  -2.3824  -2.2186
    -2.0942  -2.0798  -2.0681  -2.0346  -2.0147  -1.9852  -1.9479  -1.9315
    -1.8793  -1.7796  -1.6608  -1.6256  -1.5386  -1.5319  -1.4597  -1.3971
    -1.3851  -1.3303  -1.3225  -1.2636  -1.2597  -1.2316  -1.2215  -1.2038
    -1.1635  -1.1274  -1.0394  -1.0260  -1.0080  -0.9835  -0.9471  -0.9150
    -0.8371  -0.7864  -0.7770  -0.7400  -0.7347  -0.7033  -0.6981  -0.6756
    -0.6449  -0.5988  -0.5443  -0.5138  -0.4116  -0.3725  -0.3586  -0.2468
     0.8447   0.8995   0.9020   0.9382   1.1366   1.1398   1.1845   1.1874
     1.1886   1.2461   1.2530   1.2536   1.4480   1.5792   1.5986   1.7928
     1.9448   2.0530   2.0555   2.0843   2.1532   2.1547   2.1679   2.1729
     2.2491   2.3335   2.3455   2.4109   2.4756   2.4844   2.5091   2.5123
     2.5511   2.6181   2.6624   2.6764   2.6946   2.7623   2.7720   2.8198
     2.8983   2.9050   2.9176   2.9463   3.0125   3.0160   3.0369   3.1261
     3.2588   3.3445   3.3807   3.4033   3.4330   3.4425   3.4615   3.5213
     3.5393   3.5482   3.5605   3.6379   3.6432   3.6526   3.7345   3.7879
     3.7959   3.8244   3.8557   3.8599   3.8837   3.9335   3.9601   3.9810
     4.1002   4.1205   4.1302   4.1479   4.1557   4.1763   4.1890   4.2085
     4.2430   4.2680   4.3058   4.3194   4.3254   4.3587   4.3899   4.4016
     4.4255   4.4457   4.4815   4.4985   4.5089   4.5171   4.5552   4.5594
     4.6351   4.6445   4.6724   4.6788   4.6853   4.6994   4.7606   4.7626
     4.7907   4.9325   4.9380   4.9621   4.9820   4.9951   5.0151   5.0359
     5.0594   5.1102   5.1252   5.1653   5.2106   5.2506   5.2736   5.2812
     5.3247   5.3511   5.4000   5.4055   5.4268   5.4419   5.5017   5.5233
     5.5249   5.5347   5.5462   5.5786   5.5953   5.6099   5.6735   5.6906
     5.7108   5.7213   5.7920   5.8137   5.8190   5.8375   5.8649   5.8704
     5.8742   5.8808   5.8899   5.8991   5.9252   5.9579   5.9671   5.9715
     5.9795   5.9925   6.0221   6.0391   6.0710   6.0965   6.0988   6.1390
     6.1454   6.1610   6.1736   6.1916   6.2045   6.2290   6.2416   6.2797
     6.2989   6.3079   6.3379   6.3623   6.3671   6.4016   6.4082   6.4410
     6.4488   6.4532   6.4865   6.5119   6.5552   6.5666   6.5889   6.6137
     6.6201   6.6427   6.6662   6.6698   6.7058   6.7358   6.7474   6.7619
     6.7662   6.8083   6.8330   6.8567   6.8920   6.9019   6.9635   6.9779

          k =-0.2500 0.1443 0.0000 (108355 PWs)   bands (ev):

   -66.9082 -66.8845 -66.8781 -66.8739 -66.8596 -66.8577 -66.8570 -66.8518
   -66.8444 -66.8409 -66.8394 -66.8369 -66.8353 -66.8324 -66.8312 -66.8280
   -66.8232 -66.8196 -66.8167 -66.8099 -66.8082 -66.8051 -66.8039 -66.7963
   -66.6632 -66.6474 -66.6436 -66.6422 -66.6149 -66.6129 -66.6109 -66.6062
   -66.6034 -66.6021 -66.5988 -66.5972 -66.5676 -66.5405 -66.5305 -66.5271
   -66.5246 -66.5017 -66.4850 -66.4778 -66.4762 -66.4719 -66.4690 -66.4672
   -38.7015 -38.6794 -38.6752 -38.6632 -38.5757 -38.5740 -38.5734 -38.5448
   -38.5411 -38.5339 -38.5256 -38.5248 -38.5115 -38.4863 -38.4730 -38.4656
   -38.4606 -38.4542 -38.4536 -38.4319 -38.4260 -38.4200 -38.4124 -38.4050
   -38.3793 -38.3774 -38.3754 -38.3545 -38.3478 -38.3440 -38.3386 -38.3316
   -38.2951 -38.2918 -38.2857 -38.2704 -38.2658 -38.2619 -38.2484 -38.2444
   -38.2419 -38.2292 -38.2232 -38.2225 -38.2023 -38.2007 -38.1999 -38.1983
   -38.1947 -38.1894 -38.1874 -38.1793 -38.1759 -38.1734 -38.1712 -38.1700
   -38.1654 -38.1625 -38.1574 -38.1498 -38.1456 -38.1407 -38.1333 -38.1261
   -38.1253 -38.1215 -38.1191 -38.1156 -38.1101 -38.1043 -38.0983 -38.0830
   -38.0703 -38.0687 -38.0642 -38.0573 -38.0551 -38.0544 -38.0515 -38.0386
   -38.0375 -38.0347 -38.0250 -38.0208 -38.0129 -38.0126 -38.0094 -38.0036
   -38.0018 -37.9923 -37.9611 -37.9568 -37.9543 -37.9523 -37.9476 -37.9398
   -37.9369 -37.9311 -37.9220 -37.9195 -37.9182 -37.9116 -37.9072 -37.9047
   -37.8791 -37.8744 -37.8641 -37.8610 -37.8582 -37.8495 -37.8461 -37.8418
   -37.8406 -37.8376 -37.8357 -37.8331 -37.8275 -37.8186 -37.8165 -37.8156
   -37.8130 -37.8095 -37.8071 -37.7995 -37.7780 -37.7763 -37.7739 -37.7656
   -37.7612 -37.7590 -37.7488 -37.7417 -37.7344 -37.7270 -37.7166 -37.7102
   -37.6327 -37.5957 -37.5816 -37.5734 -37.5679 -37.5558 -37.5493 -37.5449
   -12.2978 -11.8693 -11.8588 -11.7199 -11.7087 -11.5793 -11.4938 -11.4713
   -11.4063 -11.3972 -11.3417 -11.2128 -11.1754 -11.1632 -11.1046 -11.0978
   -11.0834 -11.0235 -10.8905 -10.8080  -9.3258  -9.1410  -9.1409  -9.1205
    -9.0456  -2.8492  -2.8347  -2.8050  -2.6942  -2.6277  -2.6059  -2.5902
    -2.5700  -2.5540  -2.5122  -2.4417  -2.4294  -2.3051  -2.2389  -2.2178
    -2.1977  -2.1863  -2.1675  -2.1065  -2.0655  -2.0532  -2.0031  -1.8918
    -1.8094  -1.6496  -1.6318  -1.5779  -1.4888  -1.4665  -1.4432  -1.3629
    -1.3508  -1.3287  -1.2850  -1.2645  -1.2526  -1.2419  -1.2061  -1.1759
    -1.1642  -1.1404  -1.1006  -1.0936  -1.0708  -1.0110  -0.9100  -0.8864
    -0.8512  -0.8210  -0.7726  -0.7427  -0.7303  -0.6983  -0.6921  -0.6691
    -0.6467  -0.6260  -0.5425  -0.5087  -0.4412  -0.3275  -0.2805  -0.2614
     0.7505   0.9219   0.9253   0.9273   1.1564   1.1574   1.1582   1.1826
     1.2148   1.2155   1.2219   1.2753   1.3711   1.6310   1.7056   1.7174
     1.8784   1.8938   1.9367   2.0946   2.0994   2.1322   2.1713   2.2434
     2.2699   2.3868   2.4007   2.4211   2.4288   2.5296   2.5371   2.5579
     2.5674   2.5740   2.6154   2.6530   2.6590   2.6703   2.7054   2.7482
     2.8285   2.8452   2.8547   2.9203   3.1063   3.1771   3.2513   3.2911
     3.3016   3.3217   3.3336   3.3731   3.4577   3.4637   3.4913   3.5014
     3.5099   3.5418   3.6362   3.6503   3.6839   3.6994   3.7154   3.7645
     3.7692   3.8059   3.8182   3.8234   3.8691   3.8790   3.8882   3.9252
     4.0704   4.0924   4.1023   4.1186   4.1374   4.1543   4.1706   4.2597
     4.2663   4.2745   4.3236   4.3337   4.3499   4.3692   4.3959   4.4021
     4.4234   4.4354   4.4855   4.5057   4.5226   4.5434   4.5545   4.5628
     4.5917   4.6409   4.6558   4.7253   4.7614   4.8188   4.8389   4.8437
     4.8895   4.9106   4.9287   4.9572   4.9759   5.0166   5.0316   5.0449
     5.0477   5.0650   5.1165   5.1338   5.1855   5.2202   5.2420   5.2556
     5.2701   5.2865   5.3868   5.4357   5.4560   5.4672   5.5486   5.5652
     5.5718   5.5880   5.5975   5.6111   5.6477   5.6558   5.6793   5.6976
     5.7124   5.7623   5.8014   5.8242   5.8351   5.8615   5.8699   5.8745
     5.8931   5.8961   5.9056   5.9206   5.9841   5.9900   5.9985   6.0029
     6.0252   6.0363   6.0595   6.0785   6.0845   6.1067   6.1163   6.1307
     6.1344   6.1443   6.1604   6.1724   6.1836   6.2023   6.2429   6.2966
     6.3101   6.3219   6.3528   6.3735   6.3766   6.3821   6.3945   6.4239
     6.4297   6.4465   6.4723   6.4866   6.5026   6.5181   6.5240   6.5529
     6.5604   6.6002   6.6412   6.6514   6.6756   6.7112   6.7487   6.7593
     6.7722   6.8169   6.8285   6.8360   6.8446   6.9161   6.9268   6.9288

          k = 0.2500 0.1443 0.0000 (108355 PWs)   bands (ev):

   -66.9082 -66.8853 -66.8764 -66.8743 -66.8612 -66.8579 -66.8560 -66.8520
   -66.8441 -66.8410 -66.8402 -66.8371 -66.8332 -66.8323 -66.8308 -66.8286
   -66.8240 -66.8188 -66.8179 -66.8100 -66.8087 -66.8043 -66.8031 -66.7969
   -66.6632 -66.6475 -66.6434 -66.6422 -66.6151 -66.6138 -66.6101 -66.6053
   -66.6041 -66.6021 -66.5984 -66.5977 -66.5675 -66.5408 -66.5312 -66.5275
   -66.5229 -66.5020 -66.4855 -66.4782 -66.4753 -66.4715 -66.4693 -66.4675
   -38.7013 -38.6808 -38.6729 -38.6643 -38.5769 -38.5748 -38.5718 -38.5457
   -38.5408 -38.5324 -38.5269 -38.5239 -38.5106 -38.4852 -38.4733 -38.4695
   -38.4578 -38.4550 -38.4536 -38.4316 -38.4283 -38.4167 -38.4119 -38.4058
   -38.3797 -38.3781 -38.3766 -38.3541 -38.3488 -38.3421 -38.3394 -38.3323
   -38.2935 -38.2897 -38.2838 -38.2729 -38.2658 -38.2626 -38.2481 -38.2446
   -38.2416 -38.2328 -38.2237 -38.2196 -38.2026 -38.2006 -38.1991 -38.1985
   -38.1927 -38.1901 -38.1882 -38.1797 -38.1773 -38.1758 -38.1689 -38.1673
   -38.1651 -38.1624 -38.1582 -38.1522 -38.1469 -38.1364 -38.1300 -38.1263
   -38.1256 -38.1234 -38.1196 -38.1174 -38.1106 -38.1046 -38.0998 -38.0797
   -38.0705 -38.0679 -38.0635 -38.0578 -38.0549 -38.0533 -38.0499 -38.0422
   -38.0364 -38.0344 -38.0264 -38.0231 -38.0173 -38.0120 -38.0069 -38.0038
   -37.9997 -37.9920 -37.9614 -37.9571 -37.9543 -37.9523 -37.9468 -37.9400
   -37.9372 -37.9316 -37.9227 -37.9197 -37.9174 -37.9100 -37.9078 -37.9047
   -37.8786 -37.8742 -37.8660 -37.8607 -37.8556 -37.8506 -37.8459 -37.8436
   -37.8409 -37.8378 -37.8359 -37.8322 -37.8257 -37.8206 -37.8169 -37.8147
   -37.8119 -37.8083 -37.8065 -37.8017 -37.7777 -37.7774 -37.7738 -37.7636
   -37.7624 -37.7591 -37.7485 -37.7421 -37.7346 -37.7269 -37.7165 -37.7101
   -37.6319 -37.5960 -37.5821 -37.5750 -37.5663 -37.5571 -37.5494 -37.5434
   -12.2977 -11.8694 -11.8573 -11.7211 -11.7095 -11.5735 -11.5040 -11.4753
   -11.4055 -11.3995 -11.3359 -11.2017 -11.1722 -11.1618 -11.1095 -11.0986
   -11.0846 -11.0265 -10.8917 -10.8080  -9.3258  -9.1429  -9.1392  -9.1205
    -9.0456  -2.8541  -2.8456  -2.7942  -2.6906  -2.6324  -2.6061  -2.5878
    -2.5731  -2.5652  -2.5071  -2.4363  -2.4155  -2.3116  -2.2336  -2.2046
    -2.2007  -2.1893  -2.1643  -2.1250  -2.0657  -2.0445  -2.0129  -1.8937
    -1.8054  -1.6503  -1.6248  -1.5746  -1.5032  -1.4602  -1.4303  -1.3783
    -1.3407  -1.3305  -1.2931  -1.2715  -1.2487  -1.2251  -1.2016  -1.1831
    -1.1660  -1.1282  -1.1183  -1.0950  -1.0812  -0.9802  -0.9184  -0.8829
    -0.8557  -0.8152  -0.7741  -0.7477  -0.7159  -0.7049  -0.6945  -0.6775
    -0.6531  -0.6275  -0.5626  -0.4781  -0.4491  -0.3315  -0.2774  -0.2629
     0.7507   0.9220   0.9257   0.9270   1.1550   1.1572   1.1600   1.1827
     1.2126   1.2177   1.2211   1.2757   1.3713   1.6277   1.7052   1.7211
     1.8756   1.8950   1.9403   2.0939   2.0994   2.1305   2.1700   2.2550
     2.2702   2.3839   2.3964   2.4080   2.4326   2.5217   2.5356   2.5586
     2.5671   2.5735   2.6217   2.6457   2.6624   2.6672   2.7142   2.7394
     2.8340   2.8415   2.8503   2.9325   3.1039   3.1735   3.2577   3.2974
     3.3135   3.3233   3.3332   3.3664   3.4574   3.4690   3.4915   3.5067
     3.5143   3.5312   3.6322   3.6523   3.6865   3.7059   3.7137   3.7568
     3.7798   3.8036   3.8170   3.8226   3.8573   3.8706   3.8891   3.9322
     4.0638   4.0907   4.1070   4.1187   4.1454   4.1585   4.1719   4.2555
     4.2635   4.2813   4.3158   4.3369   4.3572   4.3839   4.3905   4.4067
     4.4213   4.4362   4.4683   4.4918   4.5202   4.5435   4.5538   4.5645
     4.5982   4.6409   4.6544   4.7256   4.7677   4.8058   4.8283   4.8540
     4.8924   4.9160   4.9351   4.9655   4.9810   5.0211   5.0341   5.0543
     5.0592   5.0743   5.0881   5.1312   5.1615   5.2044   5.2429   5.2536
     5.2731   5.2979   5.3890   5.4461   5.4547   5.4689   5.5209   5.5603
     5.5682   5.5883   5.5958   5.6196   5.6512   5.6644   5.6896   5.6969
     5.7180   5.7841   5.8009   5.8256   5.8333   5.8485   5.8616   5.8788
     5.8949   5.9025   5.9146   5.9218   5.9693   5.9797   5.9955   6.0101
     6.0187   6.0454   6.0620   6.0697   6.0815   6.1008   6.1185   6.1234
     6.1388   6.1465   6.1654   6.1721   6.1830   6.2024   6.2433   6.3021
     6.3187   6.3233   6.3556   6.3675   6.3757   6.3797   6.3905   6.4216
     6.4355   6.4406   6.4535   6.4883   6.5076   6.5173   6.5407   6.5546
     6.5636   6.5839   6.6382   6.6576   6.6695   6.7208   6.7450   6.7568
     6.7689   6.8055   6.8239   6.8374   6.8510   6.8853   6.9192   6.9400

          k = 0.5000-0.2887 0.0000 (108310 PWs)   bands (ev):

   -66.9004 -66.8966 -66.8799 -66.8760 -66.8558 -66.8511 -66.8501 -66.8493
   -66.8459 -66.8443 -66.8430 -66.8372 -66.8365 -66.8351 -66.8337 -66.8297
   -66.8219 -66.8151 -66.8133 -66.8123 -66.8075 -66.8059 -66.8048 -66.7970
   -66.6564 -66.6562 -66.6443 -66.6425 -66.6122 -66.6087 -66.6083 -66.6071
   -66.6061 -66.6018 -66.6009 -66.5984 -66.5671 -66.5393 -66.5326 -66.5289
   -66.5238 -66.5009 -66.4818 -66.4786 -66.4764 -66.4725 -66.4698 -66.4675
   -38.6943 -38.6865 -38.6713 -38.6595 -38.5682 -38.5620 -38.5614 -38.5598
   -38.5483 -38.5400 -38.5365 -38.5347 -38.5054 -38.5015 -38.4751 -38.4672
   -38.4494 -38.4430 -38.4393 -38.4372 -38.4361 -38.4338 -38.4156 -38.4149
   -38.3670 -38.3620 -38.3608 -38.3564 -38.3551 -38.3539 -38.3358 -38.3329
   -38.3033 -38.3009 -38.2660 -38.2628 -38.2570 -38.2547 -38.2424 -38.2387
   -38.2365 -38.2321 -38.2296 -38.2273 -38.2133 -38.2124 -38.1975 -38.1972
   -38.1961 -38.1933 -38.1885 -38.1880 -38.1768 -38.1765 -38.1729 -38.1726
   -38.1669 -38.1619 -38.1582 -38.1536 -38.1526 -38.1476 -38.1279 -38.1222
   -38.1159 -38.1120 -38.1090 -38.1071 -38.0980 -38.0941 -38.0935 -38.0881
   -38.0851 -38.0771 -38.0748 -38.0665 -38.0535 -38.0483 -38.0447 -38.0436
   -38.0372 -38.0313 -38.0286 -38.0268 -38.0234 -38.0132 -38.0093 -38.0041
   -37.9987 -37.9957 -37.9586 -37.9575 -37.9567 -37.9473 -37.9435 -37.9399
   -37.9294 -37.9258 -37.9215 -37.9202 -37.9151 -37.9095 -37.9042 -37.8934
   -37.8890 -37.8740 -37.8714 -37.8649 -37.8532 -37.8520 -37.8435 -37.8426
   -37.8421 -37.8378 -37.8332 -37.8306 -37.8250 -37.8212 -37.8189 -37.8170
   -37.8123 -37.8105 -37.8084 -37.7992 -37.7766 -37.7746 -37.7703 -37.7668
   -37.7635 -37.7574 -37.7501 -37.7482 -37.7319 -37.7274 -37.7179 -37.7107
   -37.6324 -37.5909 -37.5794 -37.5674 -37.5648 -37.5624 -37.5597 -37.5441
   -12.1199 -12.1186 -11.7549 -11.7421 -11.7368 -11.7342 -11.4962 -11.4791
   -11.3320 -11.3222 -11.2430 -11.2196 -11.2147 -11.1758 -11.1218 -11.1175
   -10.9930 -10.9661 -10.9071 -10.9066  -9.3259  -9.1439  -9.1437  -9.0815
    -9.0808  -2.8088  -2.8054  -2.7204  -2.7028  -2.6759  -2.6482  -2.6317
    -2.6160  -2.5688  -2.5039  -2.4631  -2.3911  -2.3691  -2.2328  -2.2183
    -2.1689  -2.1478  -2.1142  -2.1067  -2.0032  -1.9519  -1.9337  -1.9083
    -1.8166  -1.7029  -1.6807  -1.6057  -1.5801  -1.5192  -1.4915  -1.4577
    -1.4247  -1.3203  -1.2958  -1.2871  -1.2742  -1.2651  -1.1836  -1.1400
    -1.1158  -1.1041  -1.0912  -1.0864  -0.9968  -0.9652  -0.9469  -0.8967
    -0.8751  -0.8366  -0.7836  -0.7490  -0.7009  -0.6936  -0.6843  -0.6581
    -0.6055  -0.5952  -0.5212  -0.4844  -0.4672  -0.4101  -0.2993  -0.2857
     0.8705   0.8742   0.9181   0.9202   1.1682   1.1706   1.1821   1.1833
     1.1990   1.2000   1.2418   1.2464   1.4779   1.4912   1.7243   1.7413
     1.9980   2.0115   2.0179   2.0505   2.1252   2.1371   2.1545   2.1684
     2.2994   2.3025   2.4686   2.4823   2.4936   2.4977   2.5287   2.5329
     2.5724   2.5831   2.5868   2.5947   2.6929   2.7156   2.8292   2.8376
     2.8557   2.8694   2.9209   2.9232   3.1134   3.1236   3.1290   3.1464
     3.1975   3.2010   3.3029   3.3219   3.4257   3.4276   3.4645   3.4903
     3.5261   3.5334   3.6103   3.6146   3.7013   3.7051   3.7613   3.7753
     3.8213   3.8264   3.8678   3.8852   3.9465   3.9927   4.0008   4.0272
     4.0419   4.0497   4.0541   4.0762   4.0804   4.1230   4.1939   4.2260
     4.2396   4.2584   4.3100   4.3445   4.3514   4.3959   4.4132   4.4264
     4.4495   4.4646   4.4730   4.4849   4.5044   4.5325   4.5443   4.5601
     4.5739   4.6018   4.6915   4.6959   4.7102   4.7414   4.7477   4.7641
     4.7778   4.8024   4.8945   4.9081   5.0358   5.0952   5.1021   5.1121
     5.1379   5.1483   5.1675   5.2053   5.2225   5.2418   5.2483   5.2660
     5.2798   5.2931   5.3163   5.3999   5.4386   5.4575   5.4599   5.4633
     5.5180   5.5310   5.5474   5.6058   5.6391   5.6438   5.6511   5.6684
     5.6757   5.7119   5.7262   5.7883   5.8210   5.8271   5.8397   5.8475
     5.8626   5.8664   5.8877   5.9290   5.9508   5.9619   5.9813   5.9890
     5.9991   6.0048   6.0216   6.0307   6.0920   6.1011   6.1068   6.1272
     6.1406   6.1586   6.1784   6.2465   6.2639   6.2697   6.2892   6.2944
     6.2988   6.3238   6.3291   6.3374   6.3495   6.4034   6.4489   6.4714
     6.4715   6.4809   6.4883   6.5053   6.5339   6.5404   6.5456   6.5497
     6.5685   6.6083   6.6321   6.6582   6.6909   6.7209   6.7281   6.7483
     6.7785   6.7922   6.8380   6.9177   6.9526   6.9626   6.9879   6.9949

          k =-0.5000-0.2887 0.0000 (108310 PWs)   bands (ev):

   -66.8995 -66.8979 -66.8785 -66.8764 -66.8563 -66.8531 -66.8498 -66.8490
   -66.8458 -66.8449 -66.8412 -66.8383 -66.8349 -66.8343 -66.8335 -66.8305
   -66.8220 -66.8161 -66.8143 -66.8112 -66.8102 -66.8047 -66.8010 -66.7992
   -66.6570 -66.6557 -66.6438 -66.6427 -66.6129 -66.6108 -66.6072 -66.6060
   -66.6040 -66.6030 -66.6010 -66.5988 -66.5670 -66.5398 -66.5341 -66.5278
   -66.5223 -66.5014 -66.4836 -66.4782 -66.4748 -66.4718 -66.4702 -66.4681
   -38.6927 -38.6888 -38.6690 -38.6612 -38.5681 -38.5652 -38.5633 -38.5588
   -38.5425 -38.5409 -38.5376 -38.5339 -38.5037 -38.5003 -38.4755 -38.4719
   -38.4445 -38.4438 -38.4416 -38.4387 -38.4360 -38.4333 -38.4165 -38.4135
   -38.3673 -38.3646 -38.3607 -38.3594 -38.3542 -38.3513 -38.3361 -38.3334
   -38.3007 -38.2981 -38.2658 -38.2611 -38.2602 -38.2549 -38.2432 -38.2397
   -38.2330 -38.2324 -38.2312 -38.2256 -38.2156 -38.2125 -38.1987 -38.1969
   -38.1946 -38.1939 -38.1880 -38.1871 -38.1786 -38.1753 -38.1745 -38.1724
   -38.1696 -38.1581 -38.1547 -38.1541 -38.1514 -38.1494 -38.1264 -38.1223
   -38.1193 -38.1127 -38.1099 -38.1064 -38.1041 -38.0955 -38.0905 -38.0866
   -38.0832 -38.0779 -38.0685 -38.0623 -38.0531 -38.0500 -38.0456 -38.0435
   -38.0388 -38.0355 -38.0269 -38.0258 -38.0226 -38.0186 -38.0128 -38.0035
   -38.0009 -37.9898 -37.9601 -37.9580 -37.9553 -37.9455 -37.9439 -37.9414
   -37.9305 -37.9269 -37.9196 -37.9186 -37.9176 -37.9090 -37.9023 -37.8920
   -37.8892 -37.8764 -37.8709 -37.8623 -37.8523 -37.8512 -37.8480 -37.8431
   -37.8420 -37.8374 -37.8339 -37.8291 -37.8233 -37.8208 -37.8197 -37.8181
   -37.8131 -37.8072 -37.8056 -37.8040 -37.7779 -37.7760 -37.7676 -37.7664
   -37.7605 -37.7600 -37.7511 -37.7479 -37.7320 -37.7279 -37.7171 -37.7105
   -37.6306 -37.5925 -37.5783 -37.5714 -37.5688 -37.5633 -37.5498 -37.5464
   -12.1224 -12.1151 -11.7555 -11.7435 -11.7380 -11.7312 -11.5038 -11.4823
   -11.3308 -11.3291 -11.2252 -11.2175 -11.2141 -11.1683 -11.1208 -11.1171
   -11.0044 -10.9675 -10.9102 -10.9044  -9.3258  -9.1458  -9.1419  -9.0830
    -9.0791  -2.8307  -2.8146  -2.7172  -2.7022  -2.6591  -2.6345  -2.6288
    -2.6266  -2.5708  -2.4946  -2.4597  -2.3913  -2.3627  -2.2309  -2.2174
    -2.1784  -2.1743  -2.1314  -2.1025  -1.9774  -1.9516  -1.9122  -1.8728
    -1.8559  -1.7059  -1.6946  -1.6071  -1.5588  -1.5466  -1.4799  -1.4322
    -1.4225  -1.3443  -1.3093  -1.3013  -1.2720  -1.2116  -1.1882  -1.1464
    -1.1222  -1.1092  -1.1015  -1.0779  -0.9793  -0.9758  -0.9189  -0.8992
    -0.8695  -0.8576  -0.7837  -0.7408  -0.7289  -0.7065  -0.6682  -0.6598
    -0.6097  -0.5855  -0.5318  -0.5010  -0.4478  -0.4131  -0.3005  -0.2837
     0.8708   0.8741   0.9182   0.9199   1.1675   1.1707   1.1804   1.1871
     1.1989   1.1994   1.2414   1.2455   1.4769   1.4906   1.7243   1.7438
     2.0003   2.0122   2.0247   2.0315   2.1246   2.1365   2.1609   2.1788
     2.2996   2.3139   2.4698   2.4776   2.4816   2.4880   2.5263   2.5405
     2.5759   2.5790   2.5803   2.5869   2.6846   2.6960   2.8339   2.8426
     2.8565   2.8602   2.9215   2.9320   3.1274   3.1298   3.1427   3.1448
     3.1975   3.2063   3.3026   3.3229   3.4234   3.4290   3.4713   3.5096
     3.5245   3.5263   3.6117   3.6225   3.6926   3.7215   3.7519   3.7607
     3.8182   3.8318   3.8855   3.8944   3.9076   3.9861   3.9909   4.0028
     4.0347   4.0479   4.0653   4.0894   4.1022   4.1178   4.2141   4.2348
     4.2423   4.2544   4.3221   4.3508   4.3638   4.3812   4.4234   4.4252
     4.4363   4.4582   4.4688   4.4922   4.5006   4.5316   4.5365   4.5578
     4.5716   4.6070   4.6986   4.7034   4.7217   4.7308   4.7485   4.7547
     4.7721   4.7964   4.9003   4.9400   5.0458   5.0842   5.0934   5.1105
     5.1346   5.1527   5.1568   5.1821   5.2118   5.2242   5.2401   5.2520
     5.2758   5.2960   5.3412   5.4258   5.4422   5.4504   5.4576   5.4681
     5.5085   5.5200   5.5490   5.6137   5.6390   5.6480   5.6620   5.6714
     5.6818   5.7063   5.7144   5.8066   5.8169   5.8291   5.8460   5.8579
     5.8625   5.8879   5.8957   5.9231   5.9449   5.9604   5.9764   5.9838
     6.0005   6.0074   6.0230   6.0523   6.0827   6.0988   6.1109   6.1279
     6.1402   6.1559   6.1732   6.2281   6.2640   6.2740   6.2772   6.2922
     6.3000   6.3054   6.3303   6.3364   6.3423   6.3894   6.4453   6.4544
     6.4748   6.4934   6.4988   6.5265   6.5333   6.5340   6.5408   6.5459
     6.5612   6.6018   6.6289   6.6411   6.7039   6.7216   6.7355   6.7554
     6.7624   6.7802   6.8391   6.8591   6.9530   6.9568   6.9762   6.9921

          k =-0.2500 0.4330 0.0000 (108308 PWs)   bands (ev):

   -66.9019 -66.8908 -66.8889 -66.8676 -66.8597 -66.8547 -66.8499 -66.8481
   -66.8447 -66.8426 -66.8410 -66.8396 -66.8375 -66.8355 -66.8333 -66.8268
   -66.8233 -66.8162 -66.8141 -66.8117 -66.8085 -66.8049 -66.8034 -66.7978
   -66.6585 -66.6511 -66.6499 -66.6396 -66.6130 -66.6096 -66.6086 -66.6066
   -66.6037 -66.6027 -66.6009 -66.5988 -66.5671 -66.5392 -66.5346 -66.5265
   -66.5241 -66.5012 -66.4820 -66.4787 -66.4762 -66.4723 -66.4696 -66.4677
   -38.6943 -38.6830 -38.6775 -38.6569 -38.5688 -38.5659 -38.5618 -38.5552
   -38.5456 -38.5418 -38.5364 -38.5353 -38.5051 -38.4932 -38.4901 -38.4555
   -38.4523 -38.4458 -38.4427 -38.4381 -38.4306 -38.4250 -38.4218 -38.4183
   -38.3651 -38.3643 -38.3638 -38.3571 -38.3495 -38.3421 -38.3402 -38.3374
   -38.3291 -38.2698 -38.2651 -38.2636 -38.2620 -38.2511 -38.2503 -38.2403
   -38.2365 -38.2347 -38.2271 -38.2253 -38.2096 -38.2035 -38.2019 -38.1985
   -38.1977 -38.1934 -38.1913 -38.1884 -38.1791 -38.1785 -38.1773 -38.1702
   -38.1652 -38.1632 -38.1603 -38.1508 -38.1456 -38.1440 -38.1386 -38.1216
   -38.1144 -38.1103 -38.1088 -38.1074 -38.1012 -38.0955 -38.0928 -38.0888
   -38.0804 -38.0771 -38.0708 -38.0675 -38.0545 -38.0458 -38.0441 -38.0395
   -38.0382 -38.0351 -38.0340 -38.0276 -38.0234 -38.0139 -38.0116 -38.0037
   -37.9980 -37.9930 -37.9618 -37.9585 -37.9547 -37.9479 -37.9468 -37.9379
   -37.9329 -37.9246 -37.9213 -37.9156 -37.9111 -37.9061 -37.9037 -37.9013
   -37.8878 -37.8731 -37.8655 -37.8630 -37.8583 -37.8517 -37.8497 -37.8441
   -37.8392 -37.8361 -37.8330 -37.8318 -37.8251 -37.8226 -37.8197 -37.8154
   -37.8123 -37.8089 -37.8063 -37.8003 -37.7776 -37.7760 -37.7705 -37.7666
   -37.7632 -37.7547 -37.7537 -37.7459 -37.7318 -37.7280 -37.7174 -37.7105
   -37.6316 -37.5898 -37.5795 -37.5717 -37.5697 -37.5623 -37.5514 -37.5452
   -12.1763 -11.9653 -11.9578 -11.7752 -11.6374 -11.6257 -11.5950 -11.4192
   -11.3516 -11.2948 -11.2750 -11.2638 -11.2101 -11.1992 -11.0910 -11.0474
   -10.9962 -10.9910 -10.9530 -10.8762  -9.3258  -9.1593  -9.1119  -9.1081
    -9.0705  -2.8588  -2.7741  -2.7594  -2.7329  -2.6488  -2.6184  -2.5839
    -2.5516  -2.5229  -2.4852  -2.4642  -2.4481  -2.4266  -2.3974  -2.2164
    -2.1104  -2.0794  -2.0685  -2.0327  -2.0017  -1.9789  -1.9409  -1.9274
    -1.8949  -1.7761  -1.6540  -1.6241  -1.5459  -1.5353  -1.4651  -1.4140
    -1.3834  -1.3216  -1.3043  -1.2724  -1.2582  -1.2329  -1.2257  -1.2135
    -1.1585  -1.1190  -1.0397  -1.0344  -0.9983  -0.9845  -0.9523  -0.9142
    -0.8267  -0.8011  -0.7880  -0.7437  -0.7276  -0.6991  -0.6866  -0.6808
    -0.6457  -0.5774  -0.5589  -0.5090  -0.4071  -0.3793  -0.3578  -0.2466
     0.8446   0.8997   0.9019   0.9383   1.1371   1.1394   1.1843   1.1881
     1.1885   1.2468   1.2516   1.2541   1.4477   1.5785   1.6007   1.7918
     1.9433   2.0466   2.0575   2.0858   2.1491   2.1583   2.1656   2.1770
     2.2582   2.3300   2.3426   2.4048   2.4764   2.4826   2.5094   2.5205
     2.5584   2.6116   2.6747   2.6829   2.6869   2.7701   2.7789   2.8241
     2.8832   2.9108   2.9218   2.9338   3.0093   3.0176   3.0327   3.1170
     3.2607   3.3368   3.3849   3.4021   3.4286   3.4450   3.4581   3.5230
     3.5376   3.5444   3.5599   3.6382   3.6439   3.6585   3.7280   3.7935
     3.8010   3.8139   3.8485   3.8616   3.8999   3.9336   3.9578   3.9723
     4.0909   4.1251   4.1372   4.1486   4.1567   4.1712   4.1902   4.2164
     4.2400   4.2598   4.3036   4.3284   4.3345   4.3734   4.3885   4.3955
     4.4206   4.4487   4.4671   4.4876   4.5089   4.5249   4.5590   4.5614
     4.6383   4.6462   4.6686   4.6730   4.6920   4.7043   4.7498   4.7604
     4.7910   4.9261   4.9464   4.9566   4.9834   4.9888   5.0128   5.0309
     5.0723   5.1101   5.1261   5.1880   5.2137   5.2509   5.2696   5.2901
     5.3118   5.3490   5.3886   5.4049   5.4280   5.4459   5.4997   5.5175
     5.5306   5.5358   5.5540   5.5784   5.6031   5.6248   5.6473   5.6804
     5.6985   5.7315   5.7817   5.8187   5.8217   5.8373   5.8481   5.8604
     5.8737   5.8815   5.8980   5.9107   5.9318   5.9574   5.9666   5.9797
     5.9837   6.0059   6.0186   6.0305   6.0529   6.0844   6.0947   6.1267
     6.1527   6.1718   6.1734   6.1818   6.1968   6.2298   6.2766   6.2855
     6.3033   6.3151   6.3360   6.3669   6.3735   6.3901   6.4046   6.4288
     6.4408   6.4615   6.4795   6.5366   6.5587   6.5662   6.5998   6.6118
     6.6195   6.6455   6.6659   6.6814   6.7036   6.7332   6.7534   6.7607
     6.7792   6.8208   6.8286   6.8440   6.8698   6.9091   6.9644   6.9905

          k = 0.5000-0.0000 0.0000 (108308 PWs)   bands (ev):

   -66.9019 -66.8907 -66.8891 -66.8675 -66.8598 -66.8547 -66.8499 -66.8480
   -66.8446 -66.8428 -66.8410 -66.8397 -66.8374 -66.8351 -66.8337 -66.8268
   -66.8232 -66.8161 -66.8143 -66.8116 -66.8087 -66.8048 -66.8033 -66.7978
   -66.6585 -66.6510 -66.6500 -66.6396 -66.6133 -66.6096 -66.6082 -66.6065
   -66.6039 -66.6026 -66.6009 -66.5988 -66.5671 -66.5389 -66.5350 -66.5267
   -66.5238 -66.5012 -66.4826 -66.4789 -66.4751 -66.4722 -66.4699 -66.4678
   -38.6944 -38.6823 -38.6781 -38.6568 -38.5692 -38.5658 -38.5617 -38.5549
   -38.5453 -38.5420 -38.5365 -38.5353 -38.5054 -38.4930 -38.4904 -38.4558
   -38.4521 -38.4455 -38.4430 -38.4377 -38.4306 -38.4256 -38.4212 -38.4187
   -38.3651 -38.3640 -38.3639 -38.3569 -38.3495 -38.3422 -38.3403 -38.3373
   -38.3295 -38.2699 -38.2650 -38.2634 -38.2618 -38.2510 -38.2504 -38.2404
   -38.2358 -38.2349 -38.2277 -38.2258 -38.2091 -38.2034 -38.2021 -38.1988
   -38.1976 -38.1935 -38.1911 -38.1882 -38.1790 -38.1784 -38.1770 -38.1703
   -38.1651 -38.1634 -38.1605 -38.1510 -38.1458 -38.1433 -38.1385 -38.1215
   -38.1145 -38.1108 -38.1089 -38.1073 -38.1012 -38.0959 -38.0931 -38.0878
   -38.0807 -38.0768 -38.0723 -38.0645 -38.0555 -38.0453 -38.0446 -38.0395
   -38.0386 -38.0352 -38.0335 -38.0273 -38.0240 -38.0148 -38.0101 -38.0044
   -37.9990 -37.9922 -37.9620 -37.9582 -37.9546 -37.9483 -37.9460 -37.9387
   -37.9325 -37.9246 -37.9222 -37.9140 -37.9117 -37.9057 -37.9044 -37.9012
   -37.8874 -37.8733 -37.8657 -37.8626 -37.8582 -37.8515 -37.8496 -37.8451
   -37.8394 -37.8356 -37.8333 -37.8319 -37.8249 -37.8225 -37.8199 -37.8155
   -37.8121 -37.8083 -37.8069 -37.8003 -37.7777 -37.7760 -37.7707 -37.7661
   -37.7633 -37.7545 -37.7539 -37.7460 -37.7321 -37.7276 -37.7174 -37.7105
   -37.6316 -37.5898 -37.5824 -37.5695 -37.5679 -37.5609 -37.5537 -37.5453
   -12.1763 -11.9628 -11.9604 -11.7751 -11.6356 -11.6282 -11.5948 -11.4181
   -11.3516 -11.2962 -11.2734 -11.2645 -11.2101 -11.1997 -11.0871 -11.0520
   -10.9953 -10.9920 -10.9519 -10.8762  -9.3258  -9.1593  -9.1112  -9.1088
    -9.0705  -2.8642  -2.7761  -2.7493  -2.7362  -2.6265  -2.6172  -2.6063
    -2.5545  -2.5347  -2.4806  -2.4667  -2.4466  -2.4277  -2.3809  -2.2239
    -2.0961  -2.0796  -2.0638  -2.0357  -1.9964  -1.9868  -1.9569  -1.9338
    -1.8687  -1.7957  -1.6593  -1.6181  -1.5457  -1.5305  -1.4692  -1.4154
    -1.3821  -1.3190  -1.3046  -1.2699  -1.2577  -1.2328  -1.2262  -1.2126
    -1.1589  -1.1190  -1.0413  -1.0336  -0.9951  -0.9870  -0.9526  -0.9150
    -0.8260  -0.8023  -0.7902  -0.7450  -0.7247  -0.7000  -0.6883  -0.6788
    -0.6442  -0.5744  -0.5638  -0.5038  -0.4094  -0.3834  -0.3550  -0.2469
     0.8447   0.8999   0.9016   0.9383   1.1369   1.1398   1.1844   1.1877
     1.1885   1.2468   1.2519   1.2540   1.4482   1.5786   1.6006   1.7910
     1.9431   2.0470   2.0580   2.0848   2.1493   2.1579   2.1645   2.1787
     2.2587   2.3300   2.3417   2.4045   2.4751   2.4830   2.5112   2.5194
     2.5593   2.6112   2.6747   2.6830   2.6874   2.7696   2.7821   2.8247
     2.8854   2.9075   2.9222   2.9324   3.0086   3.0175   3.0332   3.1160
     3.2608   3.3381   3.3864   3.3995   3.4301   3.4428   3.4600   3.5232
     3.5345   3.5464   3.5595   3.6378   3.6431   3.6594   3.7306   3.7910
     3.8007   3.8226   3.8404   3.8656   3.8956   3.9347   3.9546   3.9732
     4.0892   4.1129   4.1381   4.1433   4.1622   4.1722   4.1853   4.2154
     4.2436   4.2774   4.3080   4.3236   4.3418   4.3722   4.3914   4.3960
     4.4207   4.4353   4.4693   4.4789   4.5159   4.5237   4.5578   4.5632
     4.6381   4.6474   4.6709   4.6788   4.6892   4.7015   4.7495   4.7603
     4.7915   4.9285   4.9468   4.9561   4.9803   4.9885   5.0174   5.0305
     5.0666   5.1109   5.1274   5.1870   5.2154   5.2440   5.2674   5.2903
     5.3158   5.3483   5.3854   5.4057   5.4317   5.4445   5.5003   5.5177
     5.5295   5.5359   5.5548   5.5777   5.6077   5.6223   5.6462   5.6811
     5.6974   5.7319   5.7799   5.8174   5.8206   5.8356   5.8452   5.8617
     5.8744   5.8825   5.8984   5.9106   5.9312   5.9581   5.9665   5.9809
     5.9882   6.0058   6.0183   6.0293   6.0540   6.0811   6.0917   6.1345
     6.1504   6.1716   6.1740   6.1824   6.1964   6.2302   6.2767   6.2896
     6.3018   6.3143   6.3352   6.3640   6.3740   6.3911   6.4028   6.4280
     6.4432   6.4611   6.4797   6.5363   6.5606   6.5683   6.5971   6.6125
     6.6201   6.6479   6.6655   6.6800   6.7032   6.7342   6.7516   6.7624
     6.7777   6.8240   6.8301   6.8421   6.8695   6.9094   6.9639   6.9923

     the Fermi energy is     5.2978 ev

!    total energy              =  -12616.46464492 Ry
     total all-electron energy =   -103594.968452 Ry
     estimated scf accuracy    <          1.8E-09 Ry
     smearing contrib. (-TS)   =       0.01063360 Ry
     internal energy E=F+TS    =  -12616.47527852 Ry

     The total energy is F=E-TS. E is the sum of the following terms:
     one-electron contribution =  -67560.92380633 Ry
     hartree contribution      =   33896.70109812 Ry
     xc contribution           =   -1216.12750777 Ry
     ewald contribution        =   26026.24047373 Ry
     DFT-D3 Dispersion         =      -1.08744206 Ry
     one-center paw contrib.   =   -3761.27809421 Ry

     convergence has been achieved in  34 iterations

     negative rho (up, down):  2.088E-04 0.000E+00

     Forces acting on atoms (cartesian axes, Ry/au):

     atom    1 type  1   force =    -0.00031230   -0.00006254   -0.00024697
     atom    2 type  1   force =     0.00005126   -0.00048030   -0.00027417
     atom    3 type  1   force =    -0.00003562   -0.00005443   -0.00012039
     atom    4 type  1   force =     0.00003794   -0.00002731    0.00025281
     atom    5 type  1   force =     0.00025628    0.00007976    0.00020720
     atom    6 type  1   force =     0.00003229    0.00017958    0.00019051
     atom    7 type  2   force =     0.00003743    0.00000200   -0.00002618
     atom    8 type  2   force =     0.00008250    0.00025945   -0.00011088
     atom    9 type  2   force =     0.00016327    0.00027481   -0.00034664
     atom   10 type  1   force =     0.00017944    0.00071859   -0.00027230
     atom   11 type  1   force =     0.00018868    0.00020413   -0.00034884
     atom   12 type  1   force =     0.00018934   -0.00034654   -0.00099753
     atom   13 type  1   force =     0.00008501   -0.00014579   -0.00000165
     atom   14 type  1   force =    -0.00001849   -0.00056787   -0.00023306
     atom   15 type  1   force =    -0.00049554   -0.00046716   -0.00010493
     atom   16 type  2   force =    -0.00031268   -0.00026273   -0.00014036
     atom   17 type  2   force =     0.00000626   -0.00022084    0.00074276
     atom   18 type  2   force =    -0.00001056   -0.00031729    0.00068924
     atom   19 type  1   force =     0.00024469    0.00040702    0.00021248
     atom   20 type  1   force =     0.00010585    0.00044123   -0.00019892
     atom   21 type  1   force =    -0.00003572    0.00004416   -0.00006586
     atom   22 type  1   force =    -0.00017349   -0.00008846    0.00021839
     atom   23 type  1   force =     0.00020000   -0.00014174    0.00036360
     atom   24 type  1   force =     0.00018277   -0.00010316   -0.00029570
     atom   25 type  2   force =    -0.00033157   -0.00035845    0.00021329
     atom   26 type  2   force =    -0.00032832   -0.00005123   -0.00048843
     atom   27 type  2   force =    -0.00017632   -0.00011585   -0.00022731
     atom   28 type  1   force =    -0.00058088    0.00009350    0.00014798
     atom   29 type  1   force =     0.00040558    0.00020065   -0.00090923
     atom   30 type  1   force =     0.00076869    0.00030619   -0.00002544
     atom   31 type  1   force =     0.00019470    0.00022674    0.00014545
     atom   32 type  1   force =    -0.00106790   -0.00072325    0.00025637
     atom   33 type  1   force =     0.00047851   -0.00067787   -0.00037115
     atom   34 type  2   force =     0.00052686    0.00060964   -0.00008912
     atom   35 type  2   force =    -0.00005106    0.00012363    0.00084831
     atom   36 type  2   force =    -0.00042132   -0.00029376    0.00060788
     atom   37 type  1   force =     0.00000996    0.00054621    0.00018191
     atom   38 type  1   force =    -0.00022386    0.00043519    0.00035143
     atom   39 type  1   force =     0.00006823    0.00001045    0.00010984
     atom   40 type  1   force =    -0.00000949   -0.00020450    0.00039184
     atom   41 type  1   force =    -0.00021950    0.00014062   -0.00001562
     atom   42 type  1   force =    -0.00008902    0.00019861    0.00030375
     atom   43 type  2   force =    -0.00007555   -0.00042160    0.00034109
     atom   44 type  2   force =     0.00012156   -0.00014832   -0.00019993
     atom   45 type  2   force =     0.00000726   -0.00018574   -0.00016116
     atom   46 type  1   force =    -0.00005808   -0.00039768   -0.00040685
     atom   47 type  1   force =     0.00025888   -0.00015537   -0.00018583
     atom   48 type  1   force =     0.00002570    0.00038787   -0.00024701
     atom   49 type  1   force =     0.00065675    0.00023521   -0.00009412
     atom   50 type  1   force =    -0.00056863   -0.00021337   -0.00038938
     atom   51 type  1   force =    -0.00055158   -0.00126311    0.00014201
     atom   52 type  2   force =     0.00007567    0.00014896   -0.00035041
     atom   53 type  2   force =     0.00001611   -0.00029085    0.00037891
     atom   54 type  2   force =     0.00018025   -0.00022287    0.00093023
     atom   55 type  1   force =    -0.00016009   -0.00002981   -0.00015377
     atom   56 type  1   force =     0.00015783   -0.00010486    0.00032857
     atom   57 type  1   force =    -0.00015796   -0.00013462   -0.00067635
     atom   58 type  1   force =     0.00014555    0.00013640    0.00038390
     atom   59 type  1   force =    -0.00004953    0.00081755    0.00026009
     atom   60 type  1   force =     0.00099072    0.00029909    0.00018643
     atom   61 type  2   force =     0.00039057    0.00030271    0.00115214
     atom   62 type  2   force =     0.00047591    0.00026978    0.00019646
     atom   63 type  2   force =     0.00009025    0.00064425    0.00004485
     atom   64 type  1   force =     0.00056015    0.00056703   -0.00015236
     atom   65 type  1   force =    -0.00042781    0.00036719   -0.00055419
     atom   66 type  1   force =     0.00000692    0.00068458   -0.00099028
     atom   67 type  1   force =    -0.00049386   -0.00017768   -0.00013815
     atom   68 type  1   force =    -0.00069655    0.00003026   -0.00090886
     atom   69 type  1   force =     0.00077229   -0.00094731   -0.00085737
     atom   70 type  2   force =    -0.00004652    0.00036607    0.00007609
     atom   71 type  2   force =    -0.00013643   -0.00021389    0.00074118
     atom   72 type  2   force =    -0.00048685   -0.00008920    0.00055160
     atom   73 type  3   force =    -0.00029115   -0.00033604   -0.00018530
     atom   74 type  4   force =    -0.00002266   -0.00044761    0.00045881
     atom   75 type  4   force =    -0.00123910    0.00052669   -0.00117309
     atom   76 type  4   force =     0.00020825    0.00074845    0.00105239
     atom   77 type  4   force =     0.00071981   -0.00054324    0.00007530

     Total force =     0.006284     Total SCF correction =     0.000318
     Energy error            =      7.8E-05 Ry
     Gradient error          =      1.3E-03 Ry/Bohr

     number of scf cycles    =  50
     number of bfgs steps    =  49

     energy             old  =  -12616.4645664958 Ry
     energy             new  =  -12616.4646449198 Ry

     CASE: energy            _new < energy            _old

     new trust radius        =       0.0276934440 bohr
     new conv_thr            =            1.0E-10 Ry


ATOMIC_POSITIONS (angstrom)
Cr              -1.5974403086        2.7612419993        8.2375196138
Cr               3.1894638957        0.0000283064        8.2387147103
Cr               0.7831605851        1.3555516744        8.2345613550
Cr               1.6277730915        2.8222726205        6.1051467525
Cr              -0.7484935518        1.2922866566        6.1054948889
Cr               1.4900983071        0.0000517612        6.1048912608
N               -0.0022631565        0.0005314883        5.0626816235
N                2.3768484863        1.3716807286        7.0917952023
N               -0.0021839762        2.7444728393        7.0929128168
Cr              -1.6483692204        2.8531091883       12.5108266929
Cr               3.2971990388       -0.0051496969       12.5088519807
Cr               0.6955484833        1.2261329595       12.4717166830
Cr               1.5993014703        2.7702989068       10.4355325764
Cr              -0.7902701501        1.3494525158       10.4189913027
Cr               1.5664210625       -0.0037377772       10.4217347111
N                0.0041177193        0.0063239436        9.3104425629
N                2.3692285818        1.3745814877       11.5522421943
N                0.0018877266        2.7420128134       11.5330098847
Cr              -3.9726259865        6.8814194332        8.2332198435
Cr               0.8195738050        4.1149506168        8.2346978083
Cr              -1.5965189596        5.4625965640        8.2314265944
Cr              -0.7443384252        6.9381544420        6.1061078882
Cr              -3.1236141521        5.4068420067        6.1097848123
Cr              -0.8861411320        4.1171331786        6.1066465824
N               -2.3766893016        4.1177401657        5.0633353037
N                0.0021932976        5.4868176303        7.0951129705
N               -2.3737537213        6.8597228615        7.0927400946
Cr              -4.0146590445        6.9634721600       12.5048669897
Cr               0.8855003866        4.0823117117       12.5592594155
Cr              -1.6617560474        5.3739698803       12.5242458329
Cr              -0.7701695971        6.8653726599       10.4339238503
Cr              -3.1331369209        5.4725630962       10.4183496236
Cr              -0.8099829048        4.1260699217       10.4414456156
N               -2.3693200003        4.1115827147        9.3190374910
N                0.0184614693        5.4760947806       11.5952396690
N               -2.3654418372        6.8586489958       11.5473724117
Cr               3.1521664807        2.7689112571        8.2326034394
Cr               7.9457999675        0.0005923932        8.2323114472
Cr               5.5254957422        1.3493383831        8.2328332916
Cr               6.3796777217        2.8248959923        6.1046918038
Cr               4.0064567660        1.2909455536        6.1037637697
Cr               6.2412728104       -0.0017587910        6.1102272115
N                4.7527853390       -0.0005125713        5.0618749396
N                7.1240593182        1.3740702567        7.0931492449
N                4.7485067386        2.7454681104        7.0915520971
Cr               3.1001979260        2.8222286538       12.5496158253
Cr               8.0364029740        0.0076167873       12.5076520127
Cr               5.4859951427        1.2581638343       12.5278484676
Cr               6.3322859160        2.7660574974       10.4304826811
Cr               3.9724893601        1.3638390092       10.4466560420
Cr               6.3043274921        0.0232788185       10.4213493166
N                4.7428497639        0.0065678600        9.3238046033
N                7.1201283221        1.3812319661       11.5474560923
N                4.7359684828        2.7554071591       11.5862334445
Cr               0.7758989533        6.8802207847        8.2428540205
Cr               5.5667885669        4.1133000647        8.2388070086
Cr               3.1531602410        5.4642537545        8.2388685617
Cr               4.0035289234        6.9383228898        6.1062508702
Cr               1.6279890659        5.4055441982        6.1050516422
Cr               3.8638664235        4.1145266502        6.1044201440
N                2.3725137230        4.1145195029        5.0599545948
N                4.7471007882        5.4851371193        7.0942566857
N                2.3739094779        6.8549800178        7.0962936269
Cr               0.7048187388        7.0205475218       12.5074177373
Cr               5.7235490632        4.1208129797       12.5087344493
Cr               3.1555288973        5.4610634133       12.4394165074
Cr               3.9696782810        6.8794599590       10.4340754111
Cr               1.5838512189        5.4710421713       10.4330807009
Cr               3.9409436690        4.1085265605       10.4337284935
N                2.3753735506        4.1166906512        9.3262803186
N                4.7868814055        5.4797793043       11.5278835296
N                2.3521959208        6.8840358119       11.5315874528
C                2.0280858086        3.5088070713       14.7158799623
H                1.8050509102        2.9863883367       15.6625080279
H                3.0149256707        3.0009702138       14.4357562099
H                1.0493087392        3.2002891190       14.1891429734
H                2.1687646967        4.5717928087       14.9316284816



     Writing config-only to output data dir tmp/CH4-H31_Rot60_bridge_/CH4-H31_Rot60_bridge_.save/ :
     XML data file
     NEW-OLD atomic charge density approx. for the potential

     negative rho (up, down):  2.138E-04 0.000E+00

     total cpu time spent up to now is       87.3 secs

     Self-consistent Calculation

     iteration #  1     ecut=    70.00 Ry     beta= 0.20
     Davidson diagonalization with overlap
     ethr =  1.00E-06,  avg # of iterations =  5.0

     Threshold (ethr) on eigenvalues was too large:
     Diagonalizing with lowered threshold

     Davidson diagonalization with overlap
     ethr =  5.09E-08,  avg # of iterations =  3.8

     negative rho (up, down):  2.127E-04 0.000E+00

     total cpu time spent up to now is      205.1 secs

     total energy              =  -12616.46444370 Ry
     estimated scf accuracy    <       0.00043499 Ry

     iteration #  2     ecut=    70.00 Ry     beta= 0.20
     Davidson diagonalization with overlap
     ethr =  5.44E-08,  avg # of iterations =  6.0

     negative rho (up, down):  2.125E-04 0.000E+00

     total cpu time spent up to now is      254.1 secs

     total energy              =  -12616.46391590 Ry
     estimated scf accuracy    <       0.04873623 Ry

     iteration #  3     ecut=    70.00 Ry     beta= 0.20
     Davidson diagonalization with overlap
     ethr =  5.44E-08,  avg # of iterations =  5.3

     negative rho (up, down):  2.125E-04 0.000E+00

     total cpu time spent up to now is      297.7 secs

     total energy              =  -12616.46444451 Ry
     estimated scf accuracy    <       0.00650637 Ry

[...]

          k = 0.5000-0.0000 0.0000 (108308 PWs)   bands (ev):

   -66.9018 -66.8907 -66.8889 -66.8676 -66.8597 -66.8546 -66.8497 -66.8481
   -66.8445 -66.8427 -66.8406 -66.8393 -66.8372 -66.8349 -66.8334 -66.8262
   -66.8230 -66.8154 -66.8134 -66.8109 -66.8080 -66.8042 -66.8021 -66.7966
   -66.6582 -66.6504 -66.6500 -66.6394 -66.6129 -66.6092 -66.6079 -66.6064
   -66.6035 -66.6024 -66.6014 -66.5988 -66.5652 -66.5386 -66.5340 -66.5262
   -66.5217 -66.4979 -66.4821 -66.4788 -66.4745 -66.4723 -66.4710 -66.4678
   -38.6945 -38.6825 -38.6783 -38.6572 -38.5693 -38.5655 -38.5620 -38.5548
   -38.5455 -38.5425 -38.5364 -38.5357 -38.5053 -38.4930 -38.4899 -38.4557
   -38.4520 -38.4454 -38.4426 -38.4376 -38.4301 -38.4253 -38.4211 -38.4185
   -38.3649 -38.3639 -38.3635 -38.3566 -38.3493 -38.3422 -38.3402 -38.3374
   -38.3290 -38.2697 -38.2650 -38.2631 -38.2613 -38.2505 -38.2497 -38.2399
   -38.2350 -38.2341 -38.2268 -38.2249 -38.2085 -38.2029 -38.2018 -38.1988
   -38.1975 -38.1937 -38.1911 -38.1884 -38.1790 -38.1785 -38.1760 -38.1704
   -38.1646 -38.1627 -38.1596 -38.1505 -38.1452 -38.1429 -38.1379 -38.1213
   -38.1143 -38.1106 -38.1088 -38.1065 -38.1007 -38.0958 -38.0930 -38.0873
   -38.0806 -38.0764 -38.0721 -38.0645 -38.0552 -38.0453 -38.0443 -38.0394
   -38.0385 -38.0351 -38.0333 -38.0270 -38.0239 -38.0135 -38.0088 -38.0041
   -37.9981 -37.9912 -37.9617 -37.9577 -37.9540 -37.9481 -37.9458 -37.9387
   -37.9323 -37.9244 -37.9220 -37.9138 -37.9116 -37.9055 -37.9039 -37.9009
   -37.8873 -37.8729 -37.8655 -37.8627 -37.8580 -37.8512 -37.8492 -37.8445
   -37.8394 -37.8354 -37.8333 -37.8320 -37.8244 -37.8219 -37.8193 -37.8149
   -37.8117 -37.8086 -37.8071 -37.8015 -37.7774 -37.7755 -37.7703 -37.7657
   -37.7631 -37.7543 -37.7537 -37.7458 -37.7314 -37.7273 -37.7164 -37.7086
   -37.6301 -37.5891 -37.5819 -37.5685 -37.5664 -37.5609 -37.5545 -37.5451
   -12.1770 -11.9639 -11.9607 -11.7766 -11.6375 -11.6293 -11.5956 -11.4191
   -11.3534 -11.2985 -11.2748 -11.2648 -11.2121 -11.2012 -11.0870 -11.0535
   -10.9970 -10.9946 -10.9518 -10.8785  -9.3456  -9.1603  -9.1113  -9.1108
    -9.0715  -2.8660  -2.7805  -2.7509  -2.7381  -2.6356  -2.6202  -2.6137
    -2.5586  -2.5359  -2.4822  -2.4692  -2.4488  -2.4298  -2.3860  -2.2263
    -2.1006  -2.0810  -2.0666  -2.0386  -1.9998  -1.9883  -1.9607  -1.9351
    -1.8774  -1.7995  -1.6602  -1.6191  -1.5470  -1.5334  -1.4702  -1.4173
    -1.3830  -1.3202  -1.3048  -1.2717  -1.2591  -1.2345  -1.2272  -1.2136
    -1.1596  -1.1185  -1.0435  -1.0344  -0.9972  -0.9888  -0.9538  -0.9160
    -0.8286  -0.8050  -0.7897  -0.7470  -0.7270  -0.7023  -0.6896  -0.6796
    -0.6452  -0.5760  -0.5659  -0.5060  -0.4123  -0.3854  -0.3559  -0.2498
     0.8433   0.8988   0.8999   0.9371   1.1354   1.1383   1.1829   1.1862
     1.1871   1.2453   1.2508   1.2520   1.4475   1.5765   1.6015   1.7910
     1.9413   2.0450   2.0576   2.0847   2.1472   2.1576   2.1638   2.1780
     2.2585   2.3291   2.3407   2.4028   2.4753   2.4820   2.5107   2.5191
     2.5582   2.6110   2.6740   2.6823   2.6871   2.7680   2.7809   2.8244
     2.8852   2.9065   2.9214   2.9325   3.0077   3.0165   3.0321   3.1148
     3.2602   3.3370   3.3861   3.4000   3.4299   3.4428   3.4578   3.5242
     3.5336   3.5465   3.5589   3.6381   3.6422   3.6584   3.7308   3.7915
     3.8027   3.8212   3.8417   3.8653   3.8955   3.9343   3.9538   3.9745
     4.0863   4.1117   4.1379   4.1424   4.1624   4.1718   4.1848   4.2154
     4.2437   4.2755   4.3066   4.3234   4.3414   4.3731   4.3911   4.3952
     4.4211   4.4352   4.4687   4.4785   4.5155   4.5235   4.5588   4.5640
     4.6382   4.6465   4.6709   4.6781   4.6894   4.7016   4.7498   4.7611
     4.7913   4.9289   4.9466   4.9565   4.9801   4.9885   5.0161   5.0297
     5.0680   5.1109   5.1273   5.1871   5.2149   5.2446   5.2679   5.2898
     5.3160   5.3485   5.3850   5.4069   5.4324   5.4454   5.5010   5.5193
     5.5302   5.5363   5.5564   5.5783   5.6079   5.6221   5.6476   5.6808
     5.6990   5.7322   5.7811   5.8185   5.8216   5.8370   5.8457   5.8631
     5.8761   5.8829   5.8982   5.9121   5.9327   5.9597   5.9673   5.9812
     5.9891   6.0063   6.0199   6.0301   6.0549   6.0823   6.0919   6.1362
     6.1514   6.1726   6.1752   6.1835   6.1974   6.2299   6.2782   6.2912
     6.3031   6.3154   6.3362   6.3653   6.3746   6.3921   6.4041   6.4288
     6.4429   6.4617   6.4809   6.5378   6.5609   6.5692   6.5983   6.6140
     6.6210   6.6486   6.6655   6.6818   6.7041   6.7349   6.7522   6.7635
     6.7780   6.8252   6.8310   6.8434   6.8719   6.9104   6.9649   6.9936

     the Fermi energy is     5.2982 ev

!    total energy              =  -12616.46479546 Ry
     total all-electron energy =   -103594.968602 Ry
     estimated scf accuracy    <          5.2E-11 Ry
     smearing contrib. (-TS)   =       0.01067905 Ry
     internal energy E=F+TS    =  -12616.47547450 Ry

     The total energy is F=E-TS. E is the sum of the following terms:
     one-electron contribution =  -67587.38320154 Ry
     hartree contribution      =   33909.93202957 Ry
     xc contribution           =   -1216.14891122 Ry
     ewald contribution        =   26039.49132528 Ry
     DFT-D3 Dispersion         =      -1.08772125 Ry
     one-center paw contrib.   =   -3761.27899534 Ry

     convergence has been achieved in  37 iterations

     negative rho (up, down):  2.090E-04 0.000E+00

     Forces acting on atoms (cartesian axes, Ry/au):

     atom    1 type  1   force =    -0.00004503    0.00042270    0.00042279
     atom    2 type  1   force =     0.00018807    0.00013625    0.00039516
     atom    3 type  1   force =    -0.00000841    0.00001495    0.00007938
     atom    4 type  1   force =     0.00022491    0.00021117    0.00015984
     atom    5 type  1   force =     0.00007465    0.00016452    0.00000243
     atom    6 type  1   force =     0.00014490    0.00016780   -0.00000913
     atom    7 type  2   force =     0.00010173    0.00004331    0.00029663
     atom    8 type  2   force =     0.00000756   -0.00011849    0.00018818
     atom    9 type  2   force =    -0.00005887   -0.00001178    0.00007516
     atom   10 type  1   force =    -0.00038222    0.00002377   -0.00001865
     atom   11 type  1   force =     0.00007427   -0.00032420    0.00017797
     atom   12 type  1   force =    -0.00046131   -0.00071849   -0.00007427
     atom   13 type  1   force =    -0.00000859    0.00006885   -0.00014177
     atom   14 type  1   force =    -0.00022370   -0.00007208    0.00009457
     atom   15 type  1   force =     0.00003580   -0.00012979    0.00010245
     atom   16 type  2   force =     0.00015563    0.00013710    0.00037031
     atom   17 type  2   force =     0.00011290   -0.00011837   -0.00077823
     atom   18 type  2   force =     0.00000946    0.00003150   -0.00051509
     atom   19 type  1   force =    -0.00005587   -0.00027033    0.00010997
     atom   20 type  1   force =    -0.00008611    0.00004871    0.00003479
     atom   21 type  1   force =     0.00014572    0.00026271    0.00026597
     atom   22 type  1   force =    -0.00010174    0.00001945   -0.00008335
     atom   23 type  1   force =    -0.00001377   -0.00022008   -0.00010348
     atom   24 type  1   force =     0.00021621   -0.00014782   -0.00027941
     atom   25 type  2   force =     0.00005481   -0.00015439   -0.00006787
     atom   26 type  2   force =     0.00002149   -0.00003432   -0.00028832
     atom   27 type  2   force =    -0.00010999    0.00009029   -0.00026320
     atom   28 type  1   force =     0.00023101    0.00064127    0.00013740
     atom   29 type  1   force =    -0.00010217   -0.00012941    0.00008291
     atom   30 type  1   force =    -0.00021238    0.00008449   -0.00023084
     atom   31 type  1   force =    -0.00022535   -0.00002848    0.00019723
     atom   32 type  1   force =     0.00045352   -0.00020263    0.00012120
     atom   33 type  1   force =     0.00023854    0.00004567   -0.00007690
     atom   34 type  2   force =    -0.00015176   -0.00010736    0.00074224
     atom   35 type  2   force =    -0.00006262    0.00014726   -0.00067472
     atom   36 type  2   force =    -0.00014230   -0.00015039   -0.00051906
     atom   37 type  1   force =     0.00023292   -0.00016512   -0.00004174
     atom   38 type  1   force =    -0.00022624   -0.00015834    0.00018620
     atom   39 type  1   force =     0.00007286    0.00015501    0.00025627
     atom   40 type  1   force =    -0.00001935   -0.00000518    0.00003265
     atom   41 type  1   force =    -0.00012918    0.00011868   -0.00002973
     atom   42 type  1   force =    -0.00008801   -0.00001862   -0.00010505
     atom   43 type  2   force =    -0.00016124    0.00021977    0.00001244
     atom   44 type  2   force =     0.00011332    0.00003540   -0.00021539
     atom   45 type  2   force =     0.00006006   -0.00000335   -0.00000959
     atom   46 type  1   force =    -0.00002677    0.00018719   -0.00013928
     atom   47 type  1   force =     0.00029392    0.00037110    0.00008424
     atom   48 type  1   force =     0.00030944   -0.00044165   -0.00014306
     atom   49 type  1   force =     0.00002392   -0.00020872    0.00020478
     atom   50 type  1   force =     0.00006282    0.00013782   -0.00022094
     atom   51 type  1   force =    -0.00027767    0.00039177   -0.00007960
     atom   52 type  2   force =    -0.00011482   -0.00025065    0.00061813
     atom   53 type  2   force =     0.00003629   -0.00004626   -0.00044203
     atom   54 type  2   force =     0.00005801   -0.00017499   -0.00087119
     atom   55 type  1   force =     0.00002219   -0.00016768    0.00023181
     atom   56 type  1   force =    -0.00005153   -0.00006180    0.00029913
     atom   57 type  1   force =    -0.00000429   -0.00004354   -0.00013327
     atom   58 type  1   force =     0.00014209    0.00010116    0.00013867
     atom   59 type  1   force =     0.00018992    0.00020222   -0.00005936
     atom   60 type  1   force =     0.00017656    0.00018866    0.00000955
     atom   61 type  2   force =     0.00017846    0.00022203    0.00012304
     atom   62 type  2   force =     0.00015923    0.00009549   -0.00002839
     atom   63 type  2   force =     0.00002866    0.00011374   -0.00018489
     atom   64 type  1   force =    -0.00096005    0.00030598    0.00032886
     atom   65 type  1   force =     0.00062648   -0.00073428    0.00026622
     atom   66 type  1   force =    -0.00060928   -0.00098695    0.00049780
     atom   67 type  1   force =     0.00003393   -0.00017041   -0.00041831
     atom   68 type  1   force =    -0.00023182    0.00029001   -0.00027608
     atom   69 type  1   force =     0.00049624    0.00005012   -0.00044762
     atom   70 type  2   force =     0.00015971   -0.00003366    0.00023160
     atom   71 type  2   force =    -0.00041400    0.00031831   -0.00068718
     atom   72 type  2   force =     0.00033100   -0.00001801   -0.00072276
     atom   73 type  3   force =    -0.00020462    0.00000309    0.00071264
     atom   74 type  4   force =     0.00012669   -0.00013849    0.00003329
     atom   75 type  4   force =    -0.00022719   -0.00002837   -0.00012234
     atom   76 type  4   force =    -0.00082567    0.00067584    0.00085267
     atom   77 type  4   force =     0.00059801   -0.00015068    0.00032549

     Total force =     0.004337     Total SCF correction =     0.000037
     Energy error            =      4.0E-05 Ry
     Gradient error          =      9.9E-04 Ry/Bohr

     bfgs converged in  53 scf cycles and  52 bfgs steps
     (criteria: energy <  1.0E-04 Ry, force <  1.0E-03 Ry/Bohr)

     End of BFGS Geometry Optimization

     Final energy             =  -12616.4647954577 Ry

     File tmp/CH4-H31_Rot60_bridge_/CH4-H31_Rot60_bridge_.bfgs deleted, as requested
Begin final coordinates

ATOMIC_POSITIONS (angstrom)
Cr              -1.5976279820        2.7616454177        8.2374598059
Cr               3.1889655802       -0.0002759440        8.2386875215
Cr               0.7826871307        1.3561375474        8.2343779515
Cr               1.6282156323        2.8232387730        6.1056358027
Cr              -0.7481871282        1.2927045255        6.1059111748
Cr               1.4897547555        0.0009385695        6.1054269229
N               -0.0025716950        0.0005507530        5.0631102011
N                2.3766429002        1.3726293504        7.0915148136
N               -0.0019635132        2.7455129351        7.0914617876
Cr              -1.6480344763        2.8550980937       12.5105653953
Cr               3.2979102015       -0.0047241573       12.5085991175
Cr               0.6954939796        1.2248389517       12.4705330553
Cr               1.5987763372        2.7696066173       10.4350481890
Cr              -0.7905567175        1.3488563307       10.4195716447
Cr               1.5651109966       -0.0051832201       10.4222717763
N                0.0033091628        0.0067439695        9.3108134448
N                2.3688116830        1.3735719381       11.5528664647
N                0.0019633992        2.7415501284       11.5347518765
Cr              -3.9718598298        6.8830100240        8.2345359855
Cr               0.8193275414        4.1162254472        8.2342258843
Cr              -1.5963838170        5.4634106252        8.2316636372
Cr              -0.7450080672        6.9384950577        6.1066056389
Cr              -3.1239112926        5.4068119768        6.1113280492
Cr              -0.8866037840        4.1173395027        6.1058677586
N               -2.3786689576        4.1174797731        5.0642926074
N                0.0012484813        5.4869983651        7.0937119292
N               -2.3743408420        6.8600637942        7.0923273325
Cr              -4.0161779792        6.9631762922       12.5056789863
Cr               0.8884714698        4.0824028182       12.5572886294
Cr              -1.6602099892        5.3748747140       12.5248940019
Cr              -0.7697143671        6.8659112282       10.4353899402
Cr              -3.1346341059        5.4715972421       10.4190175383
Cr              -0.8085241266        4.1253756418       10.4415604899
N               -2.3675871014        4.1129761925        9.3194638512
N                0.0185718893        5.4769225740       11.5981654507
N               -2.3665204625        6.8578873432       11.5493117935
Cr               3.1515964716        2.7703329836        8.2332214807
Cr               7.9448158468        0.0023745601        8.2339562616
Cr               5.5256333160        1.3501130222        8.2339076676
Cr               6.3790593717        2.8249733831        6.1062039011
Cr               4.0060437224        1.2914377148        6.1042868361
Cr               6.2408331318       -0.0010326871        6.1114413240
N                4.7526919087       -0.0009273554        5.0630231932
N                7.1242482771        1.3744127491        7.0929401999
N                4.7481623307        2.7453895237        7.0922411957
Cr               3.0996490013        2.8213068956       12.5474421474
Cr               8.0364855879        0.0073930988       12.5076686382
Cr               5.4862470355        1.2592087712       12.5278674289
Cr               6.3339769291        2.7668056120       10.4309075300
Cr               3.9711323826        1.3637965384       10.4461568409
Cr               6.3024288201        0.0215742462       10.4219867941
N                4.7421878975        0.0070006700        9.3234472996
N                7.1200034881        1.3809028973       11.5485509957
N                4.7368361337        2.7551509115       11.5873176205
Cr               0.7747752852        6.8804083852        8.2429714079
Cr               5.5671462306        4.1132614686        8.2405483727
Cr               3.1524022697        5.4646290431        8.2385307204
Cr               4.0038520233        6.9393027970        6.1082600986
Cr               1.6283270412        5.4082595911        6.1066108015
Cr               3.8662566637        4.1162534021        6.1064443984
N                2.3743122076        4.1167571180        5.0636511301
N                4.7480686111        5.4866779524        7.0965782052
N                2.3740480903        6.8572802552        7.0976428673
Cr               0.7056711988        7.0224183218       12.5091042781
Cr               5.7217905390        4.1219003681       12.5085672944
Cr               3.1553838245        5.4630492953       12.4382917676
Cr               3.9681086742        6.8792726540       10.4337845911
Cr               1.5814520068        5.4719501016       10.4310911705
Cr               3.9427211572        4.1065615930       10.4316603090
N                2.3745876745        4.1177310119        9.3271437676
N                4.7858364603        5.4794997878       11.5277786968
N                2.3507876515        6.8839154478       11.5319651824
C                2.0300007146        3.5036234293       14.7086887915
H                1.8082157268        2.9780933606       15.6544861982
H                3.0114572129        2.9879415316       14.4234399805
H                1.0446463018        3.2066347052       14.1889364963
H                2.1821338852        4.5639239621       14.9291824186
End final coordinates



     Writing all to output data dir tmp/CH4-H31_Rot60_bridge_/CH4-H31_Rot60_bridge_.save/ :
     XML data file, charge density, pseudopotentials, collected wavefunctions
 
     init_run     :      4.54s CPU      5.29s WALL (       1 calls)
     electrons    :   4944.58s CPU   5085.45s WALL (       4 calls)
     update_pot   :      3.81s CPU      4.00s WALL (       3 calls)
     forces       :     40.91s CPU     42.51s WALL (       4 calls)
     force_dftd3  :      0.93s CPU      0.97s WALL (       4 calls)

     Called by init_run:
     wfcinit      :      0.15s CPU      0.16s WALL (       1 calls)
     potinit      :      1.05s CPU      1.48s WALL (       1 calls)
     hinit0       :      0.50s CPU      0.61s WALL (       1 calls)

     Called by electrons:
     c_bands      :   4059.14s CPU   4150.88s WALL (     126 calls)
     sum_band     :    699.91s CPU    725.11s WALL (     126 calls)
     v_of_rho     :     72.46s CPU     77.86s WALL (     127 calls)
     newd         :     54.13s CPU     70.32s WALL (     127 calls)
     PAW_pot      :     46.85s CPU     47.64s WALL (     130 calls)
     mix_rho      :     10.12s CPU     10.90s WALL (     126 calls)
     energy_dftd3 :      0.47s CPU      0.47s WALL (       4 calls)

     Called by c_bands:
     init_us_2    :     71.12s CPU     72.03s WALL (     775 calls)
     cegterg      :   3822.29s CPU   3903.72s WALL (     378 calls)

     Called by *egterg:
     cdiaghg      :    131.34s CPU    132.78s WALL (    1258 calls)
     h_psi        :   1898.99s CPU   1933.85s WALL (    1276 calls)
     s_psi        :    445.29s CPU    449.65s WALL (    1276 calls)
     g_psi        :      8.67s CPU      8.78s WALL (     898 calls)

     Called by h_psi:
     h_psi:calbec :    452.13s CPU    456.46s WALL (    1276 calls)
     vloc_psi     :    984.88s CPU   1000.39s WALL (    1276 calls)
                                        0.00s GPU  (    1276 calls)
     add_vuspsi   :    446.61s CPU    450.90s WALL (    1276 calls)

     General routines
     calbec       :    693.41s CPU    700.17s WALL (    1711 calls)
     fft          :     58.52s CPU     63.60s WALL (    1693 calls)
     ffts         :      0.65s CPU      0.75s WALL (     253 calls)
     fftw         :    942.29s CPU    956.65s WALL (  946828 calls)
     interpolate  :      4.14s CPU      4.64s WALL (     127 calls)
     davcio       :      0.00s CPU      5.70s WALL (       3 calls)
 
     Parallel routines
 
     PWSCF        :      1h23m CPU      1h25m WALL

 
   This run was terminated on:   0:14:26   7Jun2026            

=------------------------------------------------------------------------------=
   JOB DONE.
=------------------------------------------------------------------------------=
