
     Program PWSCF v.7.5 starts on 13May2026 at 11:17:40 

     This program is part of the open-source Quantum ESPRESSO suite
     for quantum simulation of materials; please cite
         "P. Giannozzi et al., J. Phys.:Condens. Matter 21 395502 (2009);
         "P. Giannozzi et al., J. Phys.:Condens. Matter 29 465901 (2017);
         "P. Giannozzi et al., J. Chem. Phys. 152 154105 (2020);
          URL http://www.quantum-espresso.org", 
     in publications or presentations arising from this work. More details at
     http://www.quantum-espresso.org/quote

     Parallel version (MPI & OpenMP), running on      64 processor cores
     Number of MPI processes:                64
     Threads/MPI process:                     1

     MPI processes distributed on     1 nodes
     8952 MiB available memory on the printing compute node when the environment starts
 
     Reading input from pw-CH4-H31_Rot0_ontop_.in
Warning: card &CELL ignored

     Current dimensions of program PWSCF are:
     Max number of different atomic species (ntypx) = 10
     Max number of k-points (npk) =  40000
     Max angular momentum in pseudopotentials (lmaxx) =  4
     file Cr.pbe-spn-kjpaw_psl.1.0.0.UPF: wavefunction(s)  3S 3P 3D renormalized
     file N.pbe-n-kjpaw_psl.1.0.0.UPF: wavefunction(s)  2S renormalized
     file C.pbe-n-kjpaw_psl.1.0.0.UPF: wavefunction(s)  2S 2P renormalized
     file H.pbe-kjpaw_psl.1.0.0.UPF: wavefunction(s)  1S renormalized
 
     K-points division:     npool     =       4
     R & G space division:  proc/nbgrp/npool/nimage =      16
     Subspace diagonalization in iterative solution of the eigenvalue problem:
     one sub-group per band group will be used
     scalapack distributed-memory algorithm (size of sub-group:  4*  4 procs)

 
     Parallelization info
     --------------------
     sticks:   dense  smooth     PW     G-vecs:    dense   smooth      PW
     Min        1166     388    102               281408    54158    7274
     Max        1167     389    103               281417    54165    7281
     Sum       18661    6217   1639              4502593   866593  116429
 
     Using Slab Decomposition
 


     bravais-lattice index     =            0
     lattice parameter (alat)  =      17.9576  a.u.
     unit-cell volume          =   10952.5767 (a.u.)^3
     number of atoms/cell      =           77
     number of atomic types    =            4
     number of electrons       =       800.00
     number of Kohn-Sham states=          480
     kinetic-energy cutoff     =      70.0000  Ry
     charge density cutoff     =     840.0000  Ry
     scf convergence threshold =      1.0E-08
     mixing beta               =       0.2000
     number of iterations used =            8  plain     mixing
     energy convergence thresh.=      1.0E-04
     force convergence thresh. =      1.0E-03
     Exchange-correlation= SLA  PW   PBX  PBC
                           (   1   4   3   4   0   0   0)
     nstep                     =          200


     celldm(1)=  17.957575  celldm(2)=   0.000000  celldm(3)=   0.000000
     celldm(4)=   0.000000  celldm(5)=   0.000000  celldm(6)=   0.000000

     crystal axes: (cart. coord. in units of alat)
               a(1) = (   1.000000   0.000000   0.000000 )  
               a(2) = (  -0.500000   0.866025   0.000000 )  
               a(3) = (   0.000000   0.000000   2.183951 )  

     reciprocal axes: (cart. coord. in units 2 pi/alat)
               b(1) = (  1.000000  0.577351  0.000000 )  
               b(2) = (  0.000000  1.154701  0.000000 )  
               b(3) = (  0.000000  0.000000  0.457886 )  


     PseudoPot. # 1 for Cr read from file:
     /home/tomas.rojas_s/pseudo/Cr.pbe-spn-kjpaw_psl.1.0.0.UPF
     MD5 check sum: 198f1a2427a48552563eee314eba32ba
     Pseudo is Projector augmented-wave + core cor, Zval = 14.0
     Generated using &quot;atomic&quot; code by A. Dal Corso  v.6.3
     Shape of augmentation charge: PSQ
     Using radial grid of 1183 points,  6 beta functions with: 
                l(1) =   0
                l(2) =   0
                l(3) =   1
                l(4) =   1
                l(5) =   2
                l(6) =   2
     Q(r) pseudized with 0 coefficients 


     PseudoPot. # 2 for N  read from file:
     /home/tomas.rojas_s/pseudo/N.pbe-n-kjpaw_psl.1.0.0.UPF
     MD5 check sum: 14c48229446f9f2d411169a3abcbc3fa
     Pseudo is Projector augmented-wave + core cor, Zval =  5.0
     Generated using &quot;atomic&quot; code by A. Dal Corso  v.6.3
     Shape of augmentation charge: PSQ
     Using radial grid of 1085 points,  4 beta functions with: 
                l(1) =   0
                l(2) =   0
                l(3) =   1
                l(4) =   1
     Q(r) pseudized with 0 coefficients 


     PseudoPot. # 3 for C  read from file:
     /home/tomas.rojas_s/pseudo/C.pbe-n-kjpaw_psl.1.0.0.UPF
     MD5 check sum: 5f16ad9a65e90284d1d834d4ab3b0f7d
     Pseudo is Projector augmented-wave + core cor, Zval =  4.0
     Generated using &quot;atomic&quot; code by A. Dal Corso  v.6.3
     Shape of augmentation charge: PSQ
     Using radial grid of 1073 points,  4 beta functions with: 
                l(1) =   0
                l(2) =   0
                l(3) =   1
                l(4) =   1
     Q(r) pseudized with 0 coefficients 


     PseudoPot. # 4 for H  read from file:
     /home/tomas.rojas_s/pseudo/H.pbe-kjpaw_psl.1.0.0.UPF
     MD5 check sum: d81a744832360e4a8af0b0b5b123bc2a
     Pseudo is Projector augmented-wave, Zval =  1.0
     Generated using &quot;atomic&quot; code by A. Dal Corso  v.6.3MaX
     Shape of augmentation charge: PSQ
     Using radial grid of  929 points,  2 beta functions with: 
                l(1) =   0
                l(2) =   0
     Q(r) pseudized with 0 coefficients 


     atomic species   valence    mass     pseudopotential
     Cr               14.00    51.99610     Cr( 1.00)
     N                 5.00    14.00670     N ( 1.00)
     C                 4.00    12.01100     C ( 1.00)
     H                 1.00     1.00800     H ( 1.00)

     No symmetry found



   Cartesian axes

     site n.     atom                  positions (alat units)
         1        Cr     tau(   1) = (  -0.1681591   0.2912601   0.8673998  )
         2        Cr     tau(   2) = (   0.3363182   0.0000000   0.8673998  )
         3        Cr     tau(   3) = (   0.0818405   0.1417518   0.8673993  )
         4        Cr     tau(   4) = (   0.1684970   0.2918454   0.6425759  )
         5        Cr     tau(   5) = (  -0.0815030   0.1411673   0.6425759  )
         6        Cr     tau(   6) = (   0.1630059   0.0000000   0.6425759  )
         7        N      tau(   7) = (   0.0000000   0.0000000   0.5261641  )
         8        N      tau(   8) = (   0.2500000   0.1443376   0.7485579  )
         9        N      tau(   9) = (   0.0000000   0.2886752   0.7485579  )
        10        Cr     tau(  10) = (  -0.1730001   0.2996450   1.3148727  )
        11        Cr     tau(  11) = (   0.3460003   0.0000000   1.3148727  )
        12        Cr     tau(  12) = (   0.0770029   0.1333729   1.3148745  )
        13        Cr     tau(  13) = (   0.1677092   0.2904808   1.0968932  )
        14        Cr     tau(  14) = (  -0.0822901   0.1425306   1.0968938  )
        15        Cr     tau(  15) = (   0.1645802   0.0000000   1.0968938  )
        16        N      tau(  16) = (   0.0000000   0.0000000   0.9808490  )
        17        N      tau(  17) = (   0.2500004   0.1443372   1.2145625  )
        18        N      tau(  18) = (  -0.0000005   0.2886753   1.2145625  )
        19        Cr     tau(  19) = (  -0.4181595   0.7242736   0.8673993  )
        20        Cr     tau(  20) = (   0.0863184   0.4330126   0.8674001  )
        21        Cr     tau(  21) = (  -0.1681593   0.5747652   0.8674001  )
        22        Cr     tau(  22) = (  -0.0815030   0.7248581   0.6425759  )
        23        Cr     tau(  23) = (  -0.3315030   0.5741800   0.6425759  )
        24        Cr     tau(  24) = (  -0.0869941   0.4330127   0.6425759  )
        25        N      tau(  25) = (  -0.2500000   0.4330127   0.5261641  )
        26        N      tau(  26) = (   0.0000000   0.5773503   0.7485581  )
        27        N      tau(  27) = (  -0.2500000   0.7216878   0.7485579  )
        28        Cr     tau(  28) = (  -0.4229971   0.7326525   1.3148745  )
        29        Cr     tau(  29) = (   0.0959968   0.4330121   1.3148749  )
        30        Cr     tau(  30) = (  -0.1729989   0.5663837   1.3148749  )
        31        Cr     tau(  31) = (  -0.0822898   0.7234940   1.0968932  )
        32        Cr     tau(  32) = (  -0.3322908   0.5755446   1.0968932  )
        33        Cr     tau(  33) = (  -0.0854193   0.4330133   1.0968932  )
        34        N      tau(  34) = (  -0.2500001   0.4330128   0.9808490  )
        35        N      tau(  35) = (   0.0000000   0.5773503   1.2145635  )
        36        N      tau(  36) = (  -0.2499996   0.7216882   1.2145625  )
        37        Cr     tau(  37) = (   0.3318407   0.2912602   0.8674001  )
        38        Cr     tau(  38) = (   0.8363191   0.0000000   0.8673993  )
        39        Cr     tau(  39) = (   0.5818409   0.1417524   0.8674001  )
        40        Cr     tau(  40) = (   0.6684970   0.2918454   0.6425759  )
        41        Cr     tau(  41) = (   0.4184970   0.1411673   0.6425759  )
        42        Cr     tau(  42) = (   0.6630059   0.0000000   0.6425759  )
        43        N      tau(  43) = (   0.5000000   0.0000000   0.5261641  )
        44        N      tau(  44) = (   0.7500000   0.1443376   0.7485579  )
        45        N      tau(  45) = (   0.5000000   0.2886751   0.7485581  )
        46        Cr     tau(  46) = (   0.3270011   0.2996417   1.3148749  )
        47        Cr     tau(  47) = (   0.8459942   0.0000000   1.3148745  )
        48        Cr     tau(  48) = (   0.5770021   0.1333704   1.3148749  )
        49        Cr     tau(  49) = (   0.6677091   0.2904819   1.0968932  )
        50        Cr     tau(  50) = (   0.4177102   0.1425314   1.0968932  )
        51        Cr     tau(  51) = (   0.6645817   0.0000000   1.0968932  )
        52        N      tau(  52) = (   0.5000001   0.0000000   0.9808490  )
        53        N      tau(  53) = (   0.7500001   0.1443381   1.2145625  )
        54        N      tau(  54) = (   0.5000000   0.2886751   1.2145635  )
        55        Cr     tau(  55) = (   0.0818409   0.7242730   0.8674001  )
        56        Cr     tau(  56) = (   0.5863184   0.4330128   0.8674001  )
        57        Cr     tau(  57) = (   0.3318409   0.5747653   0.8673998  )
        58        Cr     tau(  58) = (   0.4184970   0.7248581   0.6425759  )
        59        Cr     tau(  59) = (   0.1684970   0.5741800   0.6425759  )
        60        Cr     tau(  60) = (   0.4130059   0.4330127   0.6425759  )
        61        N      tau(  61) = (   0.2500000   0.4330127   0.5261641  )
        62        N      tau(  62) = (   0.5000000   0.5773502   0.7485579  )
        63        N      tau(  63) = (   0.2500000   0.7216878   0.7485579  )
        64        Cr     tau(  64) = (   0.0770021   0.7326550   1.3148749  )
        65        Cr     tau(  65) = (   0.5959968   0.4330133   1.3148749  )
        66        Cr     tau(  66) = (   0.3269999   0.5663804   1.3148727  )
        67        Cr     tau(  67) = (   0.4177099   0.7234948   1.0968938  )
        68        Cr     tau(  68) = (   0.1677091   0.5755435   1.0968932  )
        69        Cr     tau(  69) = (   0.4145807   0.4330121   1.0968932  )
        70        N      tau(  70) = (   0.2499999   0.4330126   0.9808490  )
        71        N      tau(  71) = (   0.4999995   0.5773501   1.2145625  )
        72        N      tau(  72) = (   0.2500001   0.7216873   1.2145625  )
        73        C      tau(  73) = (   0.0959968   0.4330121   1.5635703  )
        74        H      tau(  74) = (   0.0959968   0.4330033   1.6782720  )
        75        H      tau(  75) = (   0.0959968   0.3248733   1.5253282  )
        76        H      tau(  76) = (   0.0023433   0.4870859   1.5253406  )
        77        H      tau(  77) = (   0.1896503   0.4870859   1.5253406  )

     --------------------------------------------
     DFT-D3 Dispersion Correction (3-body terms):
     --------------------------------------------
       Reference C6 values for interpolation: 

         atom   Coordination number   C6
         H          0.912             6.05
         H          0.000            15.18
         C          0.000            98.23
         C          0.987            86.49
         C          1.998            58.72
         C          2.999            51.56
         C          3.984            36.41
         N          0.000            50.54
         N          0.994            44.25
         N          2.014            39.35
         N          2.990            31.16
         Cr         0.000          1381.48
         Cr         1.827           571.38
         Cr        10.619           306.69

       Values used:

         atom   Coordination number  R0_AB[au]  C6      C8
         Cr        12.627            3.252    306.69  28303.74
         Cr        12.627            3.252    306.69  28303.74
         Cr        12.627            3.252    306.69  28303.74
         Cr        10.143            3.252    306.69  28303.74
         Cr        10.143            3.252    306.69  28303.74
         Cr        10.143            3.252    306.69  28303.74
         N          3.022            2.478     31.29    690.36
         N          6.023            2.478     31.16    687.49
         N          6.023            2.478     31.16    687.49
         Cr         9.078            3.252    306.69  28303.74
         Cr         9.071            3.252    306.69  28303.74
         Cr         9.084            3.252    306.69  28303.74
         Cr        12.748            3.252    306.69  28303.74
         Cr        12.748            3.252    306.69  28303.74
         Cr        12.748            3.252    306.69  28303.74
         N          6.047            2.478     31.16    687.49
         N          6.032            2.478     31.16    687.49
         N          6.033            2.478     31.16    687.49
         Cr        12.627            3.252    306.69  28303.74
         Cr        12.627            3.252    306.69  28303.74
         Cr        12.627            3.252    306.69  28303.74
         Cr        10.143            3.252    306.69  28303.74
         Cr        10.143            3.252    306.69  28303.74
         Cr        10.143            3.252    306.69  28303.74
         N          3.022            2.478     31.29    690.36
         N          6.023            2.478     31.16    687.49
         N          6.023            2.478     31.16    687.49
         Cr         9.071            3.252    306.69  28303.74
         Cr         9.961            3.252    306.69  28303.74
         Cr         9.084            3.252    306.69  28303.74
         Cr        12.748            3.252    306.69  28303.74
         Cr        12.748            3.252    306.69  28303.74
         Cr        12.748            3.252    306.69  28303.74
         N          6.047            2.478     31.16    687.49
         N          6.033            2.478     31.16    687.49
         N          6.032            2.478     31.16    687.49
         Cr        12.627            3.252    306.69  28303.74
         Cr        12.627            3.252    306.69  28303.74
         Cr        12.627            3.252    306.69  28303.74
         Cr        10.143            3.252    306.69  28303.74
         Cr        10.143            3.252    306.69  28303.74
         Cr        10.143            3.252    306.69  28303.74
         N          3.022            2.478     31.29    690.36
         N          6.023            2.478     31.16    687.49
         N          6.023            2.478     31.16    687.49
         Cr         9.086            3.252    306.69  28303.74
         Cr         9.071            3.252    306.69  28303.74
         Cr         9.071            3.252    306.69  28303.74
         Cr        12.748            3.252    306.69  28303.74
         Cr        12.748            3.252    306.69  28303.74
         Cr        12.748            3.252    306.69  28303.74
         N          6.047            2.478     31.16    687.49
         N          6.032            2.478     31.16    687.49
         N          6.032            2.478     31.16    687.49
         Cr        12.627            3.252    306.69  28303.74
         Cr        12.627            3.252    306.69  28303.74
         Cr        12.627            3.252    306.69  28303.74
         Cr        10.143            3.252    306.69  28303.74
         Cr        10.143            3.252    306.69  28303.74
         Cr        10.143            3.252    306.69  28303.74
         N          3.022            2.478     31.29    690.36
         N          6.023            2.478     31.16    687.49
         N          6.023            2.478     31.16    687.49
         Cr         9.078            3.252    306.69  28303.74
         Cr         9.071            3.252    306.69  28303.74
         Cr         9.101            3.252    306.69  28303.74
         Cr        12.748            3.252    306.69  28303.74
         Cr        12.748            3.252    306.69  28303.74
         Cr        12.748            3.252    306.69  28303.74
         N          6.047            2.478     31.16    687.49
         N          6.032            2.478     31.16    687.49
         N          6.032            2.478     31.16    687.49
         C          4.687            2.750     36.41   1053.17
         H          0.997            2.062      6.18     74.75
         H          1.083            2.062      6.12     74.02
         H          1.083            2.062      6.12     74.03
         H          1.095            2.062      6.12     73.95

         Molecular C6 ( Ry / a.u.^6 ) =    974401.80


     number of k points=    10  Methfessel-Paxton smearing, width (Ry)=  0.0200
                       cart. coord. in units 2pi/alat
        k(    1) = (   0.0000000   0.0000000   0.0000000), wk =   0.1250000
        k(    2) = (   0.0000000   0.2886753   0.0000000), wk =   0.2500000
        k(    3) = (   0.0000000  -0.5773505   0.0000000), wk =   0.1250000
        k(    4) = (   0.2500000   0.4330129   0.0000000), wk =   0.2500000
        k(    5) = (  -0.2500000   0.1443376   0.0000000), wk =   0.2500000
        k(    6) = (   0.2500000   0.1443376   0.0000000), wk =   0.2500000
        k(    7) = (   0.5000000  -0.2886753   0.0000000), wk =   0.1250000
        k(    8) = (  -0.5000000  -0.2886753   0.0000000), wk =   0.1250000
        k(    9) = (  -0.2500000   0.4330129   0.0000000), wk =   0.2500000
        k(   10) = (   0.5000000  -0.0000000   0.0000000), wk =   0.2500000

     Dense  grid:  4502593 G-vectors     FFT dimensions: ( 180, 180, 375)

     Smooth grid:   866593 G-vectors     FFT dimensions: (  96,  96, 216)

     Estimated max dynamical RAM per process >     867.27 MB

     Estimated total dynamical RAM >      50.98 GB

     Initial potential from superposition of free atoms

     starting charge     799.9627, renormalised to     800.0000

     negative rho (up, down):  4.119E-04 0.000E+00
     Starting wfcs are  584 randomized atomic wfcs
     Checking if some PAW data can be deallocated... 

     total cpu time spent up to now is       23.1 secs

     Self-consistent Calculation

     iteration #  1     ecut=    70.00 Ry     beta= 0.20
     Davidson diagonalization with overlap
     ethr =  1.00E-02,  avg # of iterations =  2.7

     negative rho (up, down):  1.637E-04 0.000E+00

     total cpu time spent up to now is       73.1 secs

     total energy              =  -12610.62145702 Ry
     estimated scf accuracy    <      29.16957086 Ry

     iteration #  2     ecut=    70.00 Ry     beta= 0.20
     Davidson diagonalization with overlap
     ethr =  3.65E-03,  avg # of iterations =  6.3

     negative rho (up, down):  4.783E-04 0.000E+00

     total cpu time spent up to now is      131.7 secs

     total energy              =  -12600.31583925 Ry
     estimated scf accuracy    <     661.41388933 Ry

     iteration #  3     ecut=    70.00 Ry     beta= 0.20
     Davidson diagonalization with overlap
     ethr =  3.65E-03,  avg # of iterations =  2.9

     negative rho (up, down):  6.953E-04 0.000E+00

     total cpu time spent up to now is      174.8 secs

     total energy              =  -12608.91503057 Ry
     estimated scf accuracy    <     478.83476744 Ry

     iteration #  4     ecut=    70.00 Ry     beta= 0.20
     Davidson diagonalization with overlap
     ethr =  3.65E-03,  avg # of iterations =  1.9

     negative rho (up, down):  3.508E-04 0.000E+00

     total cpu time spent up to now is      216.0 secs

     total energy              =  -12614.71928898 Ry
     estimated scf accuracy    <      91.06328197 Ry

     iteration #  5     ecut=    70.00 Ry     beta= 0.20
     Davidson diagonalization with overlap
     ethr =  3.65E-03,  avg # of iterations =  1.4

     negative rho (up, down):  4.092E-04 0.000E+00

     total cpu time spent up to now is      254.7 secs

     total energy              =  -12615.44277839 Ry
     estimated scf accuracy    <      19.05946456 Ry

     iteration #  6     ecut=    70.00 Ry     beta= 0.20
     Davidson diagonalization with overlap
     ethr =  2.38E-03,  avg # of iterations =  1.4

     negative rho (up, down):  5.016E-04 0.000E+00

     total cpu time spent up to now is      294.6 secs

     total energy              =  -12616.15839321 Ry
     estimated scf accuracy    <       3.48146814 Ry

     iteration #  7     ecut=    70.00 Ry     beta= 0.20
     Davidson diagonalization with overlap
     ethr =  4.35E-04,  avg # of iterations = 12.6

     negative rho (up, down):  4.978E-04 0.000E+00

     total cpu time spent up to now is      347.2 secs

     total energy              =  -12616.33383427 Ry
     estimated scf accuracy    <       1.98936983 Ry

     iteration #  8     ecut=    70.00 Ry     beta= 0.20
     Davidson diagonalization with overlap
     ethr =  2.49E-04,  avg # of iterations =  2.0

     negative rho (up, down):  5.208E-04 0.000E+00

     total cpu time spent up to now is      388.3 secs

     total energy              =  -12616.35416073 Ry
     estimated scf accuracy    <       0.74160339 Ry

     iteration #  9     ecut=    70.00 Ry     beta= 0.20
     Davidson diagonalization with overlap
     ethr =  9.27E-05,  avg # of iterations =  6.7

     negative rho (up, down):  4.419E-04 0.000E+00

     total cpu time spent up to now is      434.7 secs

     total energy              =  -12616.34954867 Ry
     estimated scf accuracy    <       0.73168535 Ry

     iteration # 10     ecut=    70.00 Ry     beta= 0.20
     Davidson diagonalization with overlap
     ethr =  9.15E-05,  avg # of iterations =  1.8

     negative rho (up, down):  3.865E-04 0.000E+00

     total cpu time spent up to now is      473.9 secs

     total energy              =  -12616.34438590 Ry
     estimated scf accuracy    <       0.67316349 Ry

     iteration # 11     ecut=    70.00 Ry     beta= 0.20
     Davidson diagonalization with overlap
     ethr =  8.41E-05,  avg # of iterations =  1.9

     negative rho (up, down):  4.012E-04 0.000E+00

     total cpu time spent up to now is      514.7 secs

     total energy              =  -12616.36092995 Ry
     estimated scf accuracy    <       0.19438853 Ry

     iteration # 12     ecut=    70.00 Ry     beta= 0.20
     Davidson diagonalization with overlap
     ethr =  2.43E-05,  avg # of iterations = 13.0

     negative rho (up, down):  2.796E-04 0.000E+00

     total cpu time spent up to now is      573.3 secs

     total energy              =  -12616.35415302 Ry
     estimated scf accuracy    <       0.59707519 Ry

     iteration # 13     ecut=    70.00 Ry     beta= 0.20
     Davidson diagonalization with overlap
     ethr =  2.43E-05,  avg # of iterations =  1.0

     negative rho (up, down):  2.472E-04 0.000E+00

     total cpu time spent up to now is      609.5 secs

     total energy              =  -12616.36480548 Ry
     estimated scf accuracy    <       0.11613833 Ry

     iteration # 14     ecut=    70.00 Ry     beta= 0.20
     Davidson diagonalization with overlap
     ethr =  1.45E-05,  avg # of iterations =  1.0

     negative rho (up, down):  2.178E-04 0.000E+00

     total cpu time spent up to now is      645.5 secs

     total energy              =  -12616.36568995 Ry
     estimated scf accuracy    <       0.04289520 Ry

     iteration # 15     ecut=    70.00 Ry     beta= 0.20
     Davidson diagonalization with overlap
     ethr =  5.36E-06,  avg # of iterations =  2.3

     negative rho (up, down):  2.020E-04 0.000E+00

     total cpu time spent up to now is      686.7 secs

     total energy              =  -12616.36485265 Ry
     estimated scf accuracy    <       0.15290827 Ry

     iteration # 16     ecut=    70.00 Ry     beta= 0.20
     Davidson diagonalization with overlap
     ethr =  5.36E-06,  avg # of iterations =  1.0

     negative rho (up, down):  1.984E-04 0.000E+00

     total cpu time spent up to now is      722.8 secs

     total energy              =  -12616.36634157 Ry
     estimated scf accuracy    <       0.03609942 Ry

     iteration # 17     ecut=    70.00 Ry     beta= 0.20
     Davidson diagonalization with overlap
     ethr =  4.51E-06,  avg # of iterations =  2.0

     negative rho (up, down):  2.019E-04 0.000E+00

     total cpu time spent up to now is      763.7 secs

     total energy              =  -12616.36592764 Ry
     estimated scf accuracy    <       0.07612418 Ry

     iteration # 18     ecut=    70.00 Ry     beta= 0.20
     Davidson diagonalization with overlap
     ethr =  4.51E-06,  avg # of iterations =  1.0

     negative rho (up, down):  2.033E-04 0.000E+00

     total cpu time spent up to now is      799.8 secs

     total energy              =  -12616.36747192 Ry
     estimated scf accuracy    <       0.04081085 Ry

     iteration # 19     ecut=    70.00 Ry     beta= 0.20
     Davidson diagonalization with overlap
     ethr =  4.51E-06,  avg # of iterations =  1.0

     negative rho (up, down):  2.045E-04 0.000E+00

     total cpu time spent up to now is      835.8 secs

     total energy              =  -12616.36787002 Ry
     estimated scf accuracy    <       0.01942740 Ry

     iteration # 20     ecut=    70.00 Ry     beta= 0.20
     Davidson diagonalization with overlap
     ethr =  2.43E-06,  avg # of iterations =  1.1

     negative rho (up, down):  2.065E-04 0.000E+00

     total cpu time spent up to now is      872.8 secs

     total energy              =  -12616.36792584 Ry
     estimated scf accuracy    <       0.01825639 Ry

     iteration # 21     ecut=    70.00 Ry     beta= 0.20
     Davidson diagonalization with overlap
     ethr =  2.28E-06,  avg # of iterations =  1.0

     negative rho (up, down):  2.097E-04 0.000E+00

     total cpu time spent up to now is      909.0 secs

     total energy              =  -12616.36834415 Ry
     estimated scf accuracy    <       0.00431925 Ry

     iteration # 22     ecut=    70.00 Ry     beta= 0.20
     Davidson diagonalization with overlap
     ethr =  5.40E-07,  avg # of iterations =  1.7

     negative rho (up, down):  2.101E-04 0.000E+00

     total cpu time spent up to now is      949.3 secs

     total energy              =  -12616.36812371 Ry
     estimated scf accuracy    <       0.01741232 Ry

     iteration # 23     ecut=    70.00 Ry     beta= 0.20
     Davidson diagonalization with overlap
     ethr =  5.40E-07,  avg # of iterations =  1.5

     negative rho (up, down):  2.114E-04 0.000E+00

     total cpu time spent up to now is      988.4 secs

     total energy              =  -12616.36851149 Ry
     estimated scf accuracy    <       0.00381282 Ry

     iteration # 24     ecut=    70.00 Ry     beta= 0.20
     Davidson diagonalization with overlap
     ethr =  4.77E-07,  avg # of iterations =  1.1

     negative rho (up, down):  2.125E-04 0.000E+00

     total cpu time spent up to now is     1025.5 secs

     total energy              =  -12616.36854761 Ry
     estimated scf accuracy    <       0.00374615 Ry

     iteration # 25     ecut=    70.00 Ry     beta= 0.20
     Davidson diagonalization with overlap
     ethr =  4.68E-07,  avg # of iterations =  1.0

     negative rho (up, down):  2.135E-04 0.000E+00

     total cpu time spent up to now is     1061.5 secs

     total energy              =  -12616.36844817 Ry
     estimated scf accuracy    <       0.01082862 Ry

     iteration # 26     ecut=    70.00 Ry     beta= 0.20
     Davidson diagonalization with overlap
     ethr =  4.68E-07,  avg # of iterations =  1.1

     negative rho (up, down):  2.136E-04 0.000E+00

     total cpu time spent up to now is     1098.8 secs

     total energy              =  -12616.36861757 Ry
     estimated scf accuracy    <       0.00278315 Ry

     iteration # 27     ecut=    70.00 Ry     beta= 0.20
     Davidson diagonalization with overlap
     ethr =  3.48E-07,  avg # of iterations =  1.0

     negative rho (up, down):  2.143E-04 0.000E+00

     total cpu time spent up to now is     1134.7 secs

     total energy              =  -12616.36859488 Ry
     estimated scf accuracy    <       0.00347444 Ry

     iteration # 28     ecut=    70.00 Ry     beta= 0.20
     Davidson diagonalization with overlap
     ethr =  3.48E-07,  avg # of iterations =  1.0

     negative rho (up, down):  2.148E-04 0.000E+00

     total cpu time spent up to now is     1170.7 secs

     total energy              =  -12616.36862171 Ry
     estimated scf accuracy    <       0.00355232 Ry

     iteration # 29     ecut=    70.00 Ry     beta= 0.20
     Davidson diagonalization with overlap
     ethr =  3.48E-07,  avg # of iterations =  1.0

     negative rho (up, down):  2.149E-04 0.000E+00

     total cpu time spent up to now is     1206.6 secs

     total energy              =  -12616.36868319 Ry
     estimated scf accuracy    <       0.00125821 Ry

     iteration # 30     ecut=    70.00 Ry     beta= 0.20
     Davidson diagonalization with overlap
     ethr =  1.57E-07,  avg # of iterations =  1.0

     negative rho (up, down):  2.155E-04 0.000E+00

     total cpu time spent up to now is     1242.5 secs

     total energy              =  -12616.36868251 Ry
     estimated scf accuracy    <       0.00090284 Ry

     iteration # 31     ecut=    70.00 Ry     beta= 0.20
     Davidson diagonalization with overlap
     ethr =  1.13E-07,  avg # of iterations =  1.0

     negative rho (up, down):  2.146E-04 0.000E+00

     total cpu time spent up to now is     1278.4 secs

     total energy              =  -12616.36872642 Ry
     estimated scf accuracy    <       0.00045033 Ry

     iteration # 32     ecut=    70.00 Ry     beta= 0.20
     Davidson diagonalization with overlap
     ethr =  5.63E-08,  avg # of iterations =  1.0

     negative rho (up, down):  2.152E-04 0.000E+00

     total cpu time spent up to now is     1314.4 secs

     total energy              =  -12616.36870101 Ry
     estimated scf accuracy    <       0.00078291 Ry

     iteration # 33     ecut=    70.00 Ry     beta= 0.20
     Davidson diagonalization with overlap
     ethr =  5.63E-08,  avg # of iterations =  1.0

     negative rho (up, down):  2.151E-04 0.000E+00

     total cpu time spent up to now is     1350.5 secs

     total energy              =  -12616.36872096 Ry
     estimated scf accuracy    <       0.00053942 Ry

     iteration # 34     ecut=    70.00 Ry     beta= 0.20
     Davidson diagonalization with overlap
     ethr =  5.63E-08,  avg # of iterations =  1.0

     negative rho (up, down):  2.150E-04 0.000E+00

     total cpu time spent up to now is     1386.4 secs

     total energy              =  -12616.36873167 Ry
     estimated scf accuracy    <       0.00039818 Ry

     iteration # 35     ecut=    70.00 Ry     beta= 0.20
     Davidson diagonalization with overlap
     ethr =  4.98E-08,  avg # of iterations =  1.0

     negative rho (up, down):  2.152E-04 0.000E+00

     total cpu time spent up to now is     1422.5 secs

     total energy              =  -12616.36871875 Ry
     estimated scf accuracy    <       0.00094374 Ry

     iteration # 36     ecut=    70.00 Ry     beta= 0.20
     Davidson diagonalization with overlap
     ethr =  4.98E-08,  avg # of iterations =  1.0

     negative rho (up, down):  2.151E-04 0.000E+00

     total cpu time spent up to now is     1458.4 secs

     total energy              =  -12616.36872703 Ry
     estimated scf accuracy    <       0.00096494 Ry

     iteration # 37     ecut=    70.00 Ry     beta= 0.20
     Davidson diagonalization with overlap
     ethr =  4.98E-08,  avg # of iterations =  1.0

     negative rho (up, down):  2.152E-04 0.000E+00

     total cpu time spent up to now is     1494.3 secs

     total energy              =  -12616.36874053 Ry
     estimated scf accuracy    <       0.00044384 Ry

     iteration # 38     ecut=    70.00 Ry     beta= 0.20
     Davidson diagonalization with overlap
     ethr =  4.98E-08,  avg # of iterations =  1.0

     negative rho (up, down):  2.153E-04 0.000E+00

     total cpu time spent up to now is     1530.2 secs

     total energy              =  -12616.36873287 Ry
     estimated scf accuracy    <       0.00053650 Ry

     iteration # 39     ecut=    70.00 Ry     beta= 0.20
     Davidson diagonalization with overlap
     ethr =  4.98E-08,  avg # of iterations =  1.0

     negative rho (up, down):  2.153E-04 0.000E+00

     total cpu time spent up to now is     1566.2 secs

     total energy              =  -12616.36874318 Ry
     estimated scf accuracy    <       0.00042617 Ry

     iteration # 40     ecut=    70.00 Ry     beta= 0.20
     Davidson diagonalization with overlap
     ethr =  4.98E-08,  avg # of iterations =  1.0

     negative rho (up, down):  2.154E-04 0.000E+00

     total cpu time spent up to now is     1602.2 secs

     total energy              =  -12616.36874224 Ry
     estimated scf accuracy    <       0.00018921 Ry

     iteration # 41     ecut=    70.00 Ry     beta= 0.20
     Davidson diagonalization with overlap
     ethr =  2.37E-08,  avg # of iterations =  1.0

     negative rho (up, down):  2.154E-04 0.000E+00

     total cpu time spent up to now is     1638.2 secs

     total energy              =  -12616.36874987 Ry
     estimated scf accuracy    <       0.00021545 Ry

     iteration # 42     ecut=    70.00 Ry     beta= 0.20
     Davidson diagonalization with overlap
     ethr =  2.37E-08,  avg # of iterations =  1.0

     negative rho (up, down):  2.154E-04 0.000E+00

     total cpu time spent up to now is     1674.1 secs

     total energy              =  -12616.36875131 Ry
     estimated scf accuracy    <       0.00008260 Ry

     iteration # 43     ecut=    70.00 Ry     beta= 0.20
     Davidson diagonalization with overlap
     ethr =  1.03E-08,  avg # of iterations =  1.0

     negative rho (up, down):  2.154E-04 0.000E+00

     total cpu time spent up to now is     1710.1 secs

     total energy              =  -12616.36875121 Ry
     estimated scf accuracy    <       0.00012333 Ry

     iteration # 44     ecut=    70.00 Ry     beta= 0.20
     Davidson diagonalization with overlap
     ethr =  1.03E-08,  avg # of iterations =  1.0

     negative rho (up, down):  2.155E-04 0.000E+00

     total cpu time spent up to now is     1746.1 secs

     total energy              =  -12616.36875441 Ry
     estimated scf accuracy    <       0.00005065 Ry

     iteration # 45     ecut=    70.00 Ry     beta= 0.20
     Davidson diagonalization with overlap
     ethr =  6.33E-09,  avg # of iterations =  1.0

     negative rho (up, down):  2.155E-04 0.000E+00

     total cpu time spent up to now is     1782.1 secs

     total energy              =  -12616.36875519 Ry
     estimated scf accuracy    <       0.00008666 Ry

     iteration # 46     ecut=    70.00 Ry     beta= 0.20
     Davidson diagonalization with overlap
     ethr =  6.33E-09,  avg # of iterations =  1.0

     negative rho (up, down):  2.155E-04 0.000E+00

     total cpu time spent up to now is     1818.0 secs

     total energy              =  -12616.36875408 Ry
     estimated scf accuracy    <       0.00012406 Ry

     iteration # 47     ecut=    70.00 Ry     beta= 0.20
     Davidson diagonalization with overlap
     ethr =  6.33E-09,  avg # of iterations =  1.0

     negative rho (up, down):  2.156E-04 0.000E+00

     total cpu time spent up to now is     1854.1 secs

     total energy              =  -12616.36875715 Ry
     estimated scf accuracy    <       0.00003632 Ry

     iteration # 48     ecut=    70.00 Ry     beta= 0.20
     Davidson diagonalization with overlap
     ethr =  4.54E-09,  avg # of iterations =  1.0

     negative rho (up, down):  2.156E-04 0.000E+00

     total cpu time spent up to now is     1890.2 secs

     total energy              =  -12616.36875612 Ry
     estimated scf accuracy    <       0.00002883 Ry

     iteration # 49     ecut=    70.00 Ry     beta= 0.20
     Davidson diagonalization with overlap
     ethr =  3.60E-09,  avg # of iterations =  1.0

     negative rho (up, down):  2.157E-04 0.000E+00

     total cpu time spent up to now is     1926.2 secs

     total energy              =  -12616.36875611 Ry
     estimated scf accuracy    <       0.00011513 Ry

     iteration # 50     ecut=    70.00 Ry     beta= 0.20
     Davidson diagonalization with overlap
     ethr =  3.60E-09,  avg # of iterations =  1.0

     negative rho (up, down):  2.159E-04 0.000E+00

     total cpu time spent up to now is     1962.2 secs

     total energy              =  -12616.36875760 Ry
     estimated scf accuracy    <       0.00003728 Ry

     iteration # 51     ecut=    70.00 Ry     beta= 0.20
     Davidson diagonalization with overlap
     ethr =  3.60E-09,  avg # of iterations =  1.0

     negative rho (up, down):  2.157E-04 0.000E+00

     total cpu time spent up to now is     1998.4 secs

     total energy              =  -12616.36875650 Ry
     estimated scf accuracy    <       0.00005807 Ry

     iteration # 52     ecut=    70.00 Ry     beta= 0.20
     Davidson diagonalization with overlap
     ethr =  3.60E-09,  avg # of iterations =  1.0

     negative rho (up, down):  2.158E-04 0.000E+00

     total cpu time spent up to now is     2034.4 secs

     total energy              =  -12616.36875854 Ry
     estimated scf accuracy    <       0.00001162 Ry

     iteration # 53     ecut=    70.00 Ry     beta= 0.20
     Davidson diagonalization with overlap
     ethr =  1.45E-09,  avg # of iterations =  1.0

     negative rho (up, down):  2.158E-04 0.000E+00

     total cpu time spent up to now is     2070.6 secs

     total energy              =  -12616.36875808 Ry
     estimated scf accuracy    <       0.00001874 Ry

     iteration # 54     ecut=    70.00 Ry     beta= 0.20
     Davidson diagonalization with overlap
     ethr =  1.45E-09,  avg # of iterations =  1.0

     negative rho (up, down):  2.158E-04 0.000E+00

     total cpu time spent up to now is     2106.7 secs

     total energy              =  -12616.36875844 Ry
     estimated scf accuracy    <       0.00001322 Ry

     iteration # 55     ecut=    70.00 Ry     beta= 0.20
     Davidson diagonalization with overlap
     ethr =  1.45E-09,  avg # of iterations =  1.0

     negative rho (up, down):  2.159E-04 0.000E+00

     total cpu time spent up to now is     2142.6 secs

     total energy              =  -12616.36875891 Ry
     estimated scf accuracy    <       0.00001655 Ry

     iteration # 56     ecut=    70.00 Ry     beta= 0.20
     Davidson diagonalization with overlap
     ethr =  1.45E-09,  avg # of iterations =  1.0

     negative rho (up, down):  2.159E-04 0.000E+00

     total cpu time spent up to now is     2178.6 secs

     total energy              =  -12616.36875864 Ry
     estimated scf accuracy    <       0.00000965 Ry

     iteration # 57     ecut=    70.00 Ry     beta= 0.20
     Davidson diagonalization with overlap
     ethr =  1.21E-09,  avg # of iterations =  1.0

     negative rho (up, down):  2.159E-04 0.000E+00

     total cpu time spent up to now is     2214.5 secs

     total energy              =  -12616.36875896 Ry
     estimated scf accuracy    <       0.00000706 Ry

     iteration # 58     ecut=    70.00 Ry     beta= 0.20
     Davidson diagonalization with overlap
     ethr =  8.82E-10,  avg # of iterations =  1.0

     negative rho (up, down):  2.159E-04 0.000E+00

     total cpu time spent up to now is     2250.7 secs

     total energy              =  -12616.36875909 Ry
     estimated scf accuracy    <       0.00000302 Ry

     iteration # 59     ecut=    70.00 Ry     beta= 0.20
     Davidson diagonalization with overlap
     ethr =  3.77E-10,  avg # of iterations =  1.1

     negative rho (up, down):  2.160E-04 0.000E+00

     total cpu time spent up to now is     2287.8 secs

     total energy              =  -12616.36875898 Ry
     estimated scf accuracy    <       0.00002255 Ry

     iteration # 60     ecut=    70.00 Ry     beta= 0.20
     Davidson diagonalization with overlap
     ethr =  3.77E-10,  avg # of iterations =  1.0

     negative rho (up, down):  2.161E-04 0.000E+00

     total cpu time spent up to now is     2323.8 secs

     total energy              =  -12616.36875927 Ry
     estimated scf accuracy    <       0.00000458 Ry

     iteration # 61     ecut=    70.00 Ry     beta= 0.20
     Davidson diagonalization with overlap
     ethr =  3.77E-10,  avg # of iterations =  1.0

     negative rho (up, down):  2.160E-04 0.000E+00

     total cpu time spent up to now is     2359.9 secs

     total energy              =  -12616.36875921 Ry
     estimated scf accuracy    <       0.00000081 Ry

     iteration # 62     ecut=    70.00 Ry     beta= 0.20
     Davidson diagonalization with overlap
     ethr =  1.01E-10,  avg # of iterations =  3.2

     negative rho (up, down):  2.161E-04 0.000E+00

     total cpu time spent up to now is     2403.6 secs

     total energy              =  -12616.36875921 Ry
     estimated scf accuracy    <       0.00000774 Ry

     iteration # 63     ecut=    70.00 Ry     beta= 0.20
     Davidson diagonalization with overlap
     ethr =  1.01E-10,  avg # of iterations =  1.7

     negative rho (up, down):  2.161E-04 0.000E+00

     total cpu time spent up to now is     2443.3 secs

     total energy              =  -12616.36875938 Ry
     estimated scf accuracy    <       0.00000161 Ry

     iteration # 64     ecut=    70.00 Ry     beta= 0.20
     Davidson diagonalization with overlap
     ethr =  1.01E-10,  avg # of iterations =  1.3

     negative rho (up, down):  2.161E-04 0.000E+00

     total cpu time spent up to now is     2482.6 secs

     total energy              =  -12616.36875941 Ry
     estimated scf accuracy    <       0.00000113 Ry

     iteration # 65     ecut=    70.00 Ry     beta= 0.20
     Davidson diagonalization with overlap
     ethr =  1.01E-10,  avg # of iterations =  1.0

     negative rho (up, down):  2.161E-04 0.000E+00

     total cpu time spent up to now is     2518.6 secs

     total energy              =  -12616.36875942 Ry
     estimated scf accuracy    <       0.00000080 Ry

     iteration # 66     ecut=    70.00 Ry     beta= 0.20
     Davidson diagonalization with overlap
     ethr =  1.00E-10,  avg # of iterations =  1.0

     negative rho (up, down):  2.161E-04 0.000E+00

     total cpu time spent up to now is     2554.5 secs

     total energy              =  -12616.36875943 Ry
     estimated scf accuracy    <       0.00000013 Ry

     iteration # 67     ecut=    70.00 Ry     beta= 0.20
     Davidson diagonalization with overlap
     ethr =  1.66E-11,  avg # of iterations =  3.5

     negative rho (up, down):  2.161E-04 0.000E+00

     total cpu time spent up to now is     2596.5 secs

     total energy              =  -12616.36875941 Ry
     estimated scf accuracy    <       0.00000085 Ry

     iteration # 68     ecut=    70.00 Ry     beta= 0.20
     Davidson diagonalization with overlap
     ethr =  1.66E-11,  avg # of iterations =  2.0

     negative rho (up, down):  2.161E-04 0.000E+00

     total cpu time spent up to now is     2637.4 secs

     total energy              =  -12616.36875943 Ry
     estimated scf accuracy    <       0.00000031 Ry

     iteration # 69     ecut=    70.00 Ry     beta= 0.20
     Davidson diagonalization with overlap
     ethr =  1.66E-11,  avg # of iterations =  1.0

     negative rho (up, down):  2.161E-04 0.000E+00

     total cpu time spent up to now is     2673.4 secs

     total energy              =  -12616.36875943 Ry
     estimated scf accuracy    <       0.00000014 Ry

     iteration # 70     ecut=    70.00 Ry     beta= 0.20
     Davidson diagonalization with overlap
     ethr =  1.66E-11,  avg # of iterations =  1.0

     negative rho (up, down):  2.161E-04 0.000E+00

     total cpu time spent up to now is     2709.4 secs

     total energy              =  -12616.36875944 Ry
     estimated scf accuracy    <       0.00000003 Ry

     iteration # 71     ecut=    70.00 Ry     beta= 0.20
     Davidson diagonalization with overlap
     ethr =  4.17E-12,  avg # of iterations =  1.3

     negative rho (up, down):  2.161E-04 0.000E+00

     total cpu time spent up to now is     2748.7 secs

     total energy              =  -12616.36875944 Ry
     estimated scf accuracy    <       0.00000001 Ry

     iteration # 72     ecut=    70.00 Ry     beta= 0.20
     Davidson diagonalization with overlap
     ethr =  1.26E-12,  avg # of iterations =  2.5

     negative rho (up, down):  2.161E-04 0.000E+00

     total cpu time spent up to now is     2789.3 secs

     total energy              =  -12616.36875944 Ry
     estimated scf accuracy    <       0.00000002 Ry

     iteration # 73     ecut=    70.00 Ry     beta= 0.20
     Davidson diagonalization with overlap
     ethr =  1.26E-12,  avg # of iterations =  1.7

     negative rho (up, down):  2.161E-04 0.000E+00

     total cpu time spent up to now is     2829.0 secs

     total energy              =  -12616.36875944 Ry
     estimated scf accuracy    <       0.00000002 Ry

     iteration # 74     ecut=    70.00 Ry     beta= 0.20
     Davidson diagonalization with overlap
     ethr =  1.26E-12,  avg # of iterations =  1.0

     negative rho (up, down):  2.161E-04 0.000E+00

     total cpu time spent up to now is     2864.9 secs

     End of self-consistent calculation

          k = 0.0000 0.0000 0.0000 (108303 PWs)   bands (ev):

   -66.9999 -66.9602 -66.9594 -66.9590 -66.9518 -66.9507 -66.9502 -66.9481
   -66.9258 -66.9255 -66.9250 -66.9226 -66.9212 -66.9186 -66.9168 -66.9162
   -66.9150 -66.9147 -66.9138 -66.9046 -66.9017 -66.9013 -66.8979 -66.8948
   -66.7478 -66.7189 -66.7183 -66.7180 -66.7116 -66.7113 -66.7113 -66.6950
   -66.6946 -66.6943 -66.6883 -66.6881 -66.6593 -66.6331 -66.6202 -66.6193
   -66.6088 -66.5930 -66.5873 -66.5816 -66.5773 -66.5754 -66.5726 -66.5644
   -38.8042 -38.7777 -38.7758 -38.7752 -38.6750 -38.6747 -38.6732 -38.6356
   -38.6348 -38.6199 -38.6191 -38.6179 -38.5948 -38.5644 -38.5632 -38.5603
   -38.5415 -38.5405 -38.5400 -38.5146 -38.5110 -38.5087 -38.4771 -38.4764
   -38.4721 -38.4716 -38.4701 -38.4632 -38.3890 -38.3794 -38.3719 -38.3713
   -38.3703 -38.3671 -38.3664 -38.3653 -38.3639 -38.3634 -38.3272 -38.3269
   -38.3263 -38.3105 -38.3100 -38.3086 -38.2880 -38.2660 -38.2654 -38.2644
   -38.2635 -38.2620 -38.2619 -38.2615 -38.2613 -38.2482 -38.2437 -38.2437
   -38.2381 -38.2371 -38.2323 -38.2312 -38.2303 -38.2301 -38.2297 -38.2237
   -38.2159 -38.2150 -38.2133 -38.2089 -38.2035 -38.2008 -38.1999 -38.1587
   -38.1511 -38.1484 -38.1482 -38.1444 -38.1419 -38.1415 -38.1373 -38.1361
   -38.1222 -38.1141 -38.1125 -38.1111 -38.0963 -38.0958 -38.0941 -38.0840
   -38.0795 -38.0787 -38.0682 -38.0553 -38.0534 -38.0489 -38.0486 -38.0461
   -38.0400 -38.0352 -38.0309 -38.0284 -38.0266 -38.0041 -38.0035 -38.0032
   -37.9696 -37.9690 -37.9622 -37.9618 -37.9616 -37.9510 -37.9500 -37.9438
   -37.9436 -37.9417 -37.9408 -37.9278 -37.9252 -37.9213 -37.9165 -37.9091
   -37.9084 -37.9002 -37.8997 -37.8985 -37.8662 -37.8661 -37.8659 -37.8647
   -37.8646 -37.8643 -37.8368 -37.8362 -37.8358 -37.8167 -37.8075 -37.8061
   -37.7138 -37.6975 -37.6940 -37.6800 -37.6724 -37.6701 -37.6549 -37.6524
   -12.5018 -12.0333 -11.7982 -11.7981 -11.7974 -11.6579 -11.6510 -11.6463
   -11.6284 -11.6262 -11.6230 -11.3474 -11.3440 -11.3395 -11.2671 -11.2364
   -11.2338 -11.2308 -11.0044 -10.9811  -8.9890  -8.7116  -8.7111  -8.7109
    -8.6535  -3.0048  -3.0027  -3.0012  -2.7927  -2.7604  -2.7597  -2.5664
    -2.5654  -2.5646  -2.5550  -2.5398  -2.5384  -2.4769  -2.4200  -2.4089
    -2.4058  -2.3254  -2.3210  -2.3190  -2.2390  -2.2381  -1.7873  -1.7772
    -1.7695  -1.6499  -1.6344  -1.5804  -1.5613  -1.5580  -1.5152  -1.4857
    -1.4273  -1.4258  -1.4142  -1.3935  -1.3876  -1.3380  -1.3257  -1.3036
    -1.2891  -1.2810  -1.2762  -1.2267  -1.2088  -1.2073  -1.0877  -1.0851
    -0.9837  -0.9188  -0.9105  -0.9103  -0.9001  -0.8954  -0.8503  -0.8246
    -0.8234  -0.8212  -0.6861  -0.6766  -0.6715  -0.4358  -0.4332  -0.4328
     0.6591   1.2248   1.2252   1.2256   1.4678   1.4678   1.4681   1.5451
     1.5615   1.5615   1.5837   1.5842   1.5845   1.6047   1.6050   1.6054
     1.7753   1.7792   1.7802   2.0660   2.0683   2.0689   2.1933   2.1955
     2.1962   2.2250   2.3419   2.3488   2.3497   2.4407   2.4412   2.4437
     2.4536   2.4545   2.4585   2.5147   2.5174   2.5175   2.5354   2.6975
     2.6977   2.7965   2.8003   2.8035   3.1538   3.1554   3.1960   3.2874
     3.2875   3.3491   3.3515   3.3530   3.3663   3.3685   3.3722   3.4818
     3.4851   3.4975   3.5147   3.5569   3.5687   3.6435   3.6715   3.6744
     3.6773   3.6944   3.6972   3.7197   3.7298   3.7314   3.7329   3.8279
     3.8320   3.8342   3.9863   3.9912   4.0357   4.1378   4.1438   4.1481
     4.1602   4.1623   4.2851   4.3068   4.3237   4.3291   4.3521   4.3823
     4.3912   4.4184   4.4217   4.4261   4.4369   4.4913   4.5019   4.5130
     4.5505   4.5514   4.6428   4.7022   4.7070   4.7157   4.7416   4.7868
     4.7887   4.8229   4.8395   4.8446   4.8929   4.8930   4.8986   4.9542
     4.9597   4.9883   5.0167   5.0188   5.0274   5.1313   5.1430   5.1660
     5.2348   5.2755   5.3159   5.3938   5.3947   5.3966   5.5039   5.5065
     5.5487   5.5593   5.5677   5.5701   5.5703   5.6017   5.6966   5.6995
     5.7031   5.7085   5.7148   5.7216   5.7292   5.7305   5.7630   5.7673
     5.8184   5.8447   5.8625   5.8675   5.8687   5.8707   5.8734   5.8972
     5.9134   5.9308   5.9918   5.9966   5.9988   6.0110   6.0141   6.0169
     6.0183   6.0438   6.0709   6.0716   6.0721   6.1142   6.1239   6.1615
     6.2060   6.2093   6.2196   6.2205   6.2241   6.2660   6.2665   6.2710
     6.2750   6.2992   6.3181   6.3217   6.3234   6.3580   6.3637   6.4370
     6.5339   6.5746   6.5755   6.5772   6.6313   6.6343   6.6548   6.6731
     6.6771   6.7147   6.7206   6.7215   6.7269   6.7334   6.7752   6.8356

          k = 0.0000 0.2887 0.0000 (108355 PWs)   bands (ev):

   -66.9964 -66.9724 -66.9635 -66.9623 -66.9462 -66.9456 -66.9441 -66.9384
   -66.9298 -66.9282 -66.9274 -66.9247 -66.9239 -66.9208 -66.9174 -66.9167
   -66.9142 -66.9112 -66.9086 -66.9054 -66.9026 -66.9008 -66.8984 -66.8956
   -66.7452 -66.7274 -66.7211 -66.7203 -66.7076 -66.7072 -66.7033 -66.6967
   -66.6960 -66.6937 -66.6899 -66.6892 -66.6587 -66.6328 -66.6227 -66.6198
   -66.6083 -66.5912 -66.5862 -66.5810 -66.5779 -66.5757 -66.5726 -66.5654
   -38.8010 -38.7812 -38.7725 -38.7717 -38.6706 -38.6692 -38.6679 -38.6434
   -38.6334 -38.6265 -38.6253 -38.6226 -38.5963 -38.5809 -38.5675 -38.5646
   -38.5360 -38.5355 -38.5254 -38.5161 -38.5129 -38.5097 -38.5045 -38.4820
   -38.4663 -38.4654 -38.4629 -38.4422 -38.3822 -38.3808 -38.3767 -38.3726
   -38.3691 -38.3634 -38.3624 -38.3610 -38.3551 -38.3486 -38.3320 -38.3282
   -38.3277 -38.3187 -38.3132 -38.3112 -38.2885 -38.2811 -38.2695 -38.2668
   -38.2666 -38.2652 -38.2651 -38.2648 -38.2594 -38.2532 -38.2519 -38.2483
   -38.2455 -38.2445 -38.2383 -38.2331 -38.2322 -38.2266 -38.2185 -38.2146
   -38.2103 -38.2092 -38.2059 -38.1977 -38.1941 -38.1911 -38.1901 -38.1617
   -38.1574 -38.1564 -38.1524 -38.1512 -38.1454 -38.1409 -38.1403 -38.1288
   -38.1245 -38.1206 -38.1181 -38.1050 -38.1005 -38.0972 -38.0846 -38.0839
   -38.0822 -38.0726 -38.0701 -38.0574 -38.0545 -38.0496 -38.0465 -38.0388
   -38.0380 -38.0303 -38.0270 -38.0243 -38.0235 -38.0086 -38.0081 -38.0059
   -37.9744 -37.9693 -37.9682 -37.9597 -37.9592 -37.9560 -37.9468 -37.9431
   -37.9412 -37.9388 -37.9373 -37.9258 -37.9236 -37.9187 -37.9166 -37.9121
   -37.9090 -37.9026 -37.9012 -37.8981 -37.8722 -37.8686 -37.8674 -37.8603
   -37.8590 -37.8562 -37.8463 -37.8384 -37.8353 -37.8157 -37.8084 -37.8070
   -37.7128 -37.6946 -37.6917 -37.6768 -37.6719 -37.6709 -37.6606 -37.6561
   -12.4382 -12.0110 -11.9908 -11.8550 -11.8525 -11.7237 -11.6407 -11.6318
   -11.5632 -11.5578 -11.4808 -11.3392 -11.3308 -11.2863 -11.2688 -11.2635
   -11.2559 -11.2019 -11.0376 -11.0159  -8.9890  -8.7131  -8.7125  -8.7014
    -8.6606  -2.9736  -2.9702  -2.9295  -2.8179  -2.7475  -2.7347  -2.7137
    -2.7084  -2.7054  -2.5910  -2.5878  -2.4412  -2.3981  -2.3601  -2.3507
    -2.3470  -2.2914  -2.2401  -2.2125  -2.2061  -2.1620  -1.9749  -1.7965
    -1.7786  -1.7506  -1.6807  -1.6430  -1.5885  -1.5569  -1.5224  -1.4792
    -1.4709  -1.4460  -1.4214  -1.4115  -1.3690  -1.3525  -1.3219  -1.3127
    -1.2974  -1.2827  -1.2531  -1.2483  -1.2085  -1.1204  -1.0788  -1.0630
    -1.0152  -0.9540  -0.8994  -0.8949  -0.8858  -0.8372  -0.8332  -0.8245
    -0.8027  -0.7778  -0.7170  -0.6513  -0.6487  -0.5053  -0.4610  -0.4590
     0.7804   1.1871   1.2179   1.2188   1.4574   1.4578   1.4685   1.4699
     1.5363   1.5533   1.5536   1.5723   1.6345   1.6731   1.6758   1.6873
     1.7880   1.7916   1.8358   2.0744   2.0760   2.1191   2.1676   2.1723
     2.2249   2.2784   2.3084   2.3136   2.3358   2.4355   2.4367   2.4533
     2.4634   2.4660   2.5286   2.5559   2.5600   2.5766   2.6000   2.6303
     2.7318   2.8103   2.8122   2.8713   3.0245   3.0780   3.1380   3.2088
     3.2152   3.2430   3.2471   3.2718   3.3733   3.3772   3.4029   3.4072
     3.4114   3.4496   3.5246   3.5938   3.6109   3.6196   3.6490   3.6825
     3.7119   3.7289   3.7375   3.7409   3.7814   3.7929   3.7953   3.8787
     4.0007   4.0082   4.0210   4.0365   4.0529   4.0585   4.0703   4.1552
     4.1855   4.1986   4.2525   4.2655   4.2937   4.3034   4.3182   4.3208
     4.3581   4.3744   4.3884   4.3986   4.4119   4.4910   4.4965   4.5070
     4.5290   4.5827   4.5844   4.6819   4.7063   4.7269   4.7582   4.7791
     4.7904   4.7991   4.8437   4.8679   4.8853   4.9395   4.9497   4.9545
     4.9812   4.9881   5.0124   5.0786   5.0866   5.1468   5.1714   5.1882
     5.2098   5.2570   5.2848   5.3149   5.3313   5.3727   5.3915   5.4642
     5.4754   5.4795   5.4825   5.5265   5.5548   5.5681   5.5814   5.5856
     5.6108   5.6901   5.7077   5.7316   5.7526   5.7592   5.7656   5.7745
     5.7971   5.8183   5.8282   5.8439   5.8685   5.8926   5.8959   5.9011
     5.9154   5.9485   5.9672   5.9768   5.9870   5.9897   6.0239   6.0315
     6.0395   6.0499   6.0565   6.0683   6.0704   6.0809   6.1223   6.1817
     6.2155   6.2210   6.2380   6.2556   6.2609   6.2654   6.2750   6.3085
     6.3207   6.3260   6.3527   6.3789   6.4080   6.4149   6.4567   6.4738
     6.4776   6.4818   6.5457   6.5524   6.5644   6.5780   6.6550   6.6642
     6.6851   6.7036   6.7101   6.7384   6.7502   6.7565   6.8104   6.8305

          k = 0.0000-0.5774 0.0000 (108310 PWs)   bands (ev):

   -66.9869 -66.9864 -66.9657 -66.9644 -66.9399 -66.9388 -66.9383 -66.9368
   -66.9336 -66.9326 -66.9264 -66.9253 -66.9253 -66.9228 -66.9205 -66.9204
   -66.9108 -66.9075 -66.9067 -66.9060 -66.9038 -66.9001 -66.8991 -66.8969
   -66.7381 -66.7376 -66.7225 -66.7218 -66.7025 -66.7022 -66.7005 -66.6994
   -66.6953 -66.6944 -66.6918 -66.6914 -66.6581 -66.6322 -66.6254 -66.6202
   -66.6078 -66.5893 -66.5854 -66.5802 -66.5791 -66.5755 -66.5725 -66.5667
   -38.7927 -38.7907 -38.7683 -38.7673 -38.6632 -38.6619 -38.6597 -38.6572
   -38.6336 -38.6330 -38.6295 -38.6283 -38.5951 -38.5944 -38.5698 -38.5668
   -38.5323 -38.5305 -38.5232 -38.5221 -38.5178 -38.5158 -38.4961 -38.4958
   -38.4592 -38.4578 -38.4461 -38.4454 -38.3916 -38.3899 -38.3688 -38.3683
   -38.3627 -38.3621 -38.3522 -38.3519 -38.3420 -38.3412 -38.3304 -38.3296
   -38.3244 -38.3239 -38.3170 -38.3139 -38.3023 -38.3014 -38.2717 -38.2696
   -38.2695 -38.2685 -38.2646 -38.2639 -38.2633 -38.2607 -38.2555 -38.2507
   -38.2464 -38.2453 -38.2439 -38.2357 -38.2346 -38.2344 -38.2131 -38.2112
   -38.1980 -38.1942 -38.1918 -38.1850 -38.1845 -38.1812 -38.1805 -38.1792
   -38.1665 -38.1649 -38.1642 -38.1611 -38.1378 -38.1348 -38.1334 -38.1326
   -38.1294 -38.1292 -38.1151 -38.1134 -38.1030 -38.0981 -38.0833 -38.0787
   -38.0781 -38.0755 -38.0622 -38.0565 -38.0559 -38.0509 -38.0454 -38.0412
   -38.0376 -38.0352 -38.0241 -38.0206 -38.0156 -38.0133 -37.9953 -37.9938
   -37.9844 -37.9818 -37.9685 -37.9676 -37.9579 -37.9572 -37.9443 -37.9395
   -37.9380 -37.9349 -37.9331 -37.9325 -37.9212 -37.9160 -37.9147 -37.9114
   -37.9053 -37.9050 -37.9038 -37.9028 -37.8699 -37.8689 -37.8663 -37.8654
   -37.8563 -37.8548 -37.8464 -37.8453 -37.8339 -37.8134 -37.8099 -37.8087
   -37.7117 -37.6894 -37.6823 -37.6818 -37.6731 -37.6705 -37.6686 -37.6580
   -12.2628 -12.2596 -11.8907 -11.8869 -11.8776 -11.8732 -11.6481 -11.6397
   -11.4748 -11.4705 -11.3480 -11.3479 -11.3405 -11.3294 -11.3117 -11.3085
   -11.1313 -11.1264 -11.1087 -11.1085  -8.9890  -8.7147  -8.7141  -8.6800
    -8.6794  -2.9404  -2.9349  -2.8442  -2.8415  -2.7769  -2.7747  -2.7744
    -2.7712  -2.6494  -2.6480  -2.5341  -2.5312  -2.3754  -2.3656  -2.3126
    -2.2983  -2.2642  -2.2482  -2.1279  -2.1250  -2.0401  -2.0395  -1.8605
    -1.8484  -1.7656  -1.7121  -1.6846  -1.6714  -1.5871  -1.5700  -1.5330
    -1.5098  -1.4614  -1.4441  -1.4187  -1.3899  -1.3574  -1.2955  -1.2904
    -1.2627  -1.2561  -1.2450  -1.2335  -1.1311  -1.1138  -1.0513  -1.0490
    -1.0314  -1.0263  -0.9077  -0.8984  -0.8543  -0.8399  -0.8365  -0.8192
    -0.7359  -0.7333  -0.6710  -0.6678  -0.6223  -0.6183  -0.4847  -0.4823
     1.0228   1.0234   1.2059   1.2068   1.4376   1.4387   1.4578   1.4584
     1.5332   1.5337   1.5499   1.5502   1.6926   1.6929   1.6998   1.7076
     1.9271   1.9318   1.9339   1.9371   2.1104   2.1123   2.1438   2.1496
     2.2382   2.2397   2.3717   2.3731   2.3936   2.3960   2.4275   2.4280
     2.4654   2.4684   2.4787   2.4805   2.5833   2.5890   2.7568   2.7591
     2.8102   2.8156   2.8310   2.8356   3.0168   3.0313   3.0475   3.0542
     3.1185   3.1201   3.2102   3.2221   3.3367   3.3434   3.3987   3.4045
     3.4330   3.4354   3.5301   3.5324   3.6198   3.6330   3.6776   3.6797
     3.7429   3.7497   3.8194   3.8281   3.8690   3.8772   3.9156   3.9208
     3.9547   3.9588   3.9908   4.0016   4.0145   4.0238   4.1446   4.1540
     4.1643   4.1689   4.2900   4.2960   4.3196   4.3321   4.3359   4.3602
     4.3690   4.3757   4.3861   4.3951   4.4596   4.4663   4.4814   4.4838
     4.4892   4.4985   4.6171   4.6226   4.6455   4.6640   4.6898   4.6911
     4.7074   4.7090   4.8304   4.8361   4.9934   4.9974   4.9987   5.0010
     5.0064   5.0168   5.0843   5.0919   5.1278   5.1303   5.1465   5.1475
     5.2003   5.2024   5.2718   5.3262   5.3538   5.3553   5.3654   5.3697
     5.4353   5.4506   5.4703   5.5034   5.5315   5.5385   5.5692   5.5698
     5.5922   5.5994   5.6116   5.6825   5.7139   5.7212   5.7513   5.7549
     5.7766   5.7786   5.7985   5.8449   5.8504   5.8563   5.8776   5.8893
     5.9057   5.9095   5.9256   5.9338   5.9839   6.0014   6.0117   6.0170
     6.0490   6.0655   6.0815   6.1352   6.1616   6.1742   6.1747   6.1843
     6.1880   6.1985   6.2070   6.2158   6.2205   6.2263   6.3478   6.3559
     6.3570   6.3582   6.4017   6.4272   6.4411   6.4563   6.4593   6.4598
     6.4726   6.5038   6.5080   6.5246   6.6216   6.6252   6.6317   6.6325
     6.6694   6.6796   6.7187   6.7284   6.8564   6.8670   6.8712   6.8800

          k = 0.2500 0.4330 0.0000 (108308 PWs)   bands (ev):

   -66.9898 -66.9781 -66.9775 -66.9540 -66.9463 -66.9413 -66.9365 -66.9338
   -66.9325 -66.9314 -66.9309 -66.9253 -66.9250 -66.9217 -66.9207 -66.9168
   -66.9137 -66.9086 -66.9058 -66.9052 -66.9029 -66.9012 -66.8995 -66.8964
   -66.7402 -66.7315 -66.7312 -66.7147 -66.7080 -66.7018 -66.6987 -66.6984
   -66.6946 -66.6944 -66.6925 -66.6915 -66.6580 -66.6315 -66.6274 -66.6192
   -66.6073 -66.5902 -66.5845 -66.5805 -66.5785 -66.5759 -66.5734 -66.5661
   -38.7943 -38.7829 -38.7815 -38.7601 -38.6645 -38.6636 -38.6579 -38.6538
   -38.6394 -38.6313 -38.6287 -38.6269 -38.5959 -38.5873 -38.5862 -38.5473
   -38.5410 -38.5292 -38.5285 -38.5234 -38.5217 -38.5055 -38.5030 -38.4899
   -38.4549 -38.4542 -38.4527 -38.4420 -38.4173 -38.3711 -38.3708 -38.3700
   -38.3624 -38.3577 -38.3491 -38.3463 -38.3457 -38.3397 -38.3387 -38.3300
   -38.3243 -38.3177 -38.3170 -38.3150 -38.2988 -38.2928 -38.2917 -38.2721
   -38.2710 -38.2675 -38.2666 -38.2620 -38.2578 -38.2546 -38.2521 -38.2518
   -38.2489 -38.2458 -38.2435 -38.2359 -38.2338 -38.2321 -38.2311 -38.1984
   -38.1979 -38.1960 -38.1909 -38.1871 -38.1839 -38.1815 -38.1803 -38.1724
   -38.1691 -38.1668 -38.1643 -38.1622 -38.1396 -38.1343 -38.1333 -38.1261
   -38.1251 -38.1229 -38.1216 -38.1182 -38.1121 -38.0950 -38.0834 -38.0810
   -38.0773 -38.0732 -38.0606 -38.0593 -38.0579 -38.0519 -38.0470 -38.0426
   -38.0376 -38.0258 -38.0245 -38.0202 -38.0147 -38.0051 -38.0036 -37.9981
   -37.9842 -37.9731 -37.9703 -37.9677 -37.9591 -37.9543 -37.9500 -37.9431
   -37.9396 -37.9355 -37.9338 -37.9303 -37.9193 -37.9148 -37.9139 -37.9102
   -37.9094 -37.9073 -37.8994 -37.8992 -37.8743 -37.8739 -37.8624 -37.8617
   -37.8601 -37.8507 -37.8503 -37.8426 -37.8341 -37.8135 -37.8099 -37.8084
   -37.7097 -37.6910 -37.6867 -37.6797 -37.6752 -37.6700 -37.6648 -37.6584
   -12.3179 -12.1056 -12.1032 -11.9121 -11.7794 -11.7748 -11.7261 -11.5611
   -11.5345 -11.4248 -11.4048 -11.4036 -11.3887 -11.3235 -11.2151 -11.2098
   -11.1892 -11.1884 -11.1010 -11.0808  -8.9890  -8.7230  -8.6957  -8.6954
    -8.6740  -2.9886  -2.8897  -2.8862  -2.8702  -2.7588  -2.7571  -2.7174
    -2.6807  -2.6292  -2.6168  -2.5945  -2.5914  -2.5495  -2.3631  -2.2288
    -2.2222  -2.2099  -2.1936  -2.1409  -2.1318  -2.0957  -2.0863  -1.9675
    -1.8222  -1.7887  -1.7224  -1.6802  -1.6038  -1.5655  -1.5401  -1.5065
    -1.4848  -1.4658  -1.4390  -1.4206  -1.3934  -1.3684  -1.3421  -1.3291
    -1.2943  -1.2781  -1.1851  -1.1731  -1.1429  -1.1391  -1.1152  -1.0726
    -0.9598  -0.9355  -0.9297  -0.8786  -0.8641  -0.8561  -0.8316  -0.8100
    -0.8006  -0.7534  -0.7434  -0.6610  -0.5630  -0.5527  -0.5488  -0.4559
     0.9569   1.1383   1.1397   1.2389   1.4244   1.4400   1.4415   1.4421
     1.4855   1.5669   1.5677   1.5942   1.6613   1.6789   1.6824   1.7372
     1.8565   1.9739   1.9769   2.0633   2.0644   2.1277   2.1289   2.1877
     2.1936   2.2541   2.2568   2.2886   2.3637   2.3692   2.4037   2.4041
     2.4558   2.5048   2.5700   2.5954   2.5993   2.6794   2.6819   2.7919
     2.8002   2.8036   2.8331   2.8435   2.9334   2.9421   2.9457   3.0083
     3.1905   3.2530   3.2958   3.3040   3.3445   3.3476   3.3544   3.4381
     3.4422   3.4449   3.4615   3.5694   3.5885   3.5905   3.6529   3.7147
     3.7258   3.7567   3.7629   3.7925   3.7983   3.8535   3.8780   3.9011
     4.0375   4.0422   4.0578   4.0648   4.0756   4.0866   4.0917   4.1240
     4.1626   4.1866   4.2192   4.2471   4.2602   4.3029   4.3207   4.3403
     4.3711   4.3730   4.4116   4.4169   4.4496   4.4660   4.4732   4.4838
     4.5718   4.5800   4.5945   4.6105   4.6168   4.6256   4.6446   4.6857
     4.7389   4.8694   4.8727   4.8879   4.8989   4.9102   4.9174   4.9289
     4.9648   4.9837   5.0465   5.0673   5.1258   5.1558   5.1714   5.1804
     5.1922   5.2845   5.3045   5.3193   5.3299   5.3550   5.4012   5.4352
     5.4439   5.4465   5.4598   5.4923   5.5126   5.5249   5.5504   5.5979
     5.6123   5.6305   5.6501   5.7215   5.7340   5.7418   5.7490   5.7594
     5.7800   5.7831   5.7892   5.7930   5.8234   5.8689   5.8768   5.8841
     5.8918   5.9039   5.9236   5.9349   5.9675   5.9791   6.0035   6.0244
     6.0430   6.0647   6.0792   6.0842   6.1031   6.1193   6.1299   6.1793
     6.1903   6.1986   6.2233   6.2380   6.2493   6.2838   6.3002   6.3212
     6.3479   6.3663   6.3814   6.4048   6.4356   6.4715   6.4873   6.5118
     6.5134   6.5440   6.5764   6.5801   6.6072   6.6330   6.6624   6.6802
     6.6817   6.6980   6.7320   6.7353   6.7749   6.8094   6.8596   6.8741

          k =-0.2500 0.1443 0.0000 (108355 PWs)   bands (ev):

   -66.9964 -66.9724 -66.9634 -66.9626 -66.9462 -66.9448 -66.9444 -66.9387
   -66.9296 -66.9282 -66.9278 -66.9243 -66.9237 -66.9219 -66.9177 -66.9164
   -66.9128 -66.9119 -66.9087 -66.9050 -66.9024 -66.9017 -66.8985 -66.8953
   -66.7452 -66.7274 -66.7207 -66.7206 -66.7075 -66.7074 -66.7032 -66.6964
   -66.6962 -66.6938 -66.6898 -66.6893 -66.6586 -66.6330 -66.6227 -66.6203
   -66.6073 -66.5918 -66.5852 -66.5816 -66.5779 -66.5760 -66.5729 -66.5650
   -38.8009 -38.7810 -38.7730 -38.7714 -38.6699 -38.6696 -38.6681 -38.6428
   -38.6341 -38.6261 -38.6255 -38.6231 -38.5964 -38.5813 -38.5668 -38.5642
   -38.5370 -38.5347 -38.5254 -38.5163 -38.5122 -38.5101 -38.5041 -38.4825
   -38.4658 -38.4649 -38.4637 -38.4424 -38.3827 -38.3816 -38.3763 -38.3728
   -38.3691 -38.3631 -38.3625 -38.3604 -38.3556 -38.3481 -38.3321 -38.3280
   -38.3271 -38.3179 -38.3129 -38.3118 -38.2881 -38.2816 -38.2699 -38.2670
   -38.2667 -38.2659 -38.2650 -38.2644 -38.2591 -38.2544 -38.2527 -38.2488
   -38.2458 -38.2445 -38.2373 -38.2331 -38.2321 -38.2253 -38.2180 -38.2142
   -38.2110 -38.2095 -38.2075 -38.1964 -38.1934 -38.1916 -38.1902 -38.1615
   -38.1603 -38.1547 -38.1524 -38.1499 -38.1453 -38.1405 -38.1403 -38.1288
   -38.1247 -38.1200 -38.1189 -38.1039 -38.0981 -38.0973 -38.0912 -38.0842
   -38.0803 -38.0723 -38.0686 -38.0588 -38.0522 -38.0499 -38.0474 -38.0403
   -38.0369 -38.0293 -38.0273 -38.0238 -38.0227 -38.0102 -38.0083 -38.0053
   -37.9739 -37.9700 -37.9673 -37.9602 -37.9594 -37.9556 -37.9457 -37.9446
   -37.9416 -37.9399 -37.9389 -37.9252 -37.9221 -37.9191 -37.9155 -37.9115
   -37.9094 -37.9023 -37.9019 -37.8977 -37.8721 -37.8685 -37.8681 -37.8594
   -37.8591 -37.8565 -37.8460 -37.8387 -37.8351 -37.8157 -37.8084 -37.8069
   -37.7111 -37.6953 -37.6914 -37.6811 -37.6724 -37.6672 -37.6624 -37.6544
   -12.4382 -12.0110 -11.9908 -11.8540 -11.8535 -11.7240 -11.6363 -11.6358
   -11.5608 -11.5603 -11.4808 -11.3354 -11.3350 -11.2861 -11.2673 -11.2662
   -11.2549 -11.2017 -11.0375 -11.0159  -8.9890  -8.7129  -8.7126  -8.7014
    -8.6606  -2.9729  -2.9702  -2.9298  -2.8178  -2.7472  -2.7342  -2.7119
    -2.7082  -2.7054  -2.5913  -2.5878  -2.4435  -2.4000  -2.3619  -2.3508
    -2.3478  -2.2905  -2.2376  -2.2123  -2.2056  -2.1605  -1.9734  -1.7951
    -1.7759  -1.7465  -1.6914  -1.6578  -1.6037  -1.5382  -1.5179  -1.4918
    -1.4546  -1.4455  -1.4226  -1.3948  -1.3772  -1.3451  -1.3397  -1.3147
    -1.2964  -1.2768  -1.2508  -1.2466  -1.2155  -1.1224  -1.0782  -1.0602
    -1.0146  -0.9550  -0.9069  -0.8902  -0.8859  -0.8353  -0.8313  -0.8275
    -0.8001  -0.7742  -0.7204  -0.6514  -0.6466  -0.5049  -0.4610  -0.4593
     0.7802   1.1869   1.2184   1.2185   1.4575   1.4577   1.4682   1.4698
     1.5366   1.5535   1.5540   1.5723   1.6345   1.6746   1.6757   1.6876
     1.7895   1.7914   1.8336   2.0741   2.0763   2.1195   2.1697   2.1712
     2.2243   2.2767   2.3103   2.3120   2.3363   2.4358   2.4377   2.4528
     2.4636   2.4651   2.5277   2.5564   2.5596   2.5755   2.6001   2.6288
     2.7318   2.8086   2.8112   2.8752   3.0247   3.0777   3.1411   3.2098
     3.2126   3.2424   3.2479   3.2783   3.3705   3.3766   3.4003   3.4070
     3.4109   3.4485   3.5271   3.5873   3.6137   3.6195   3.6519   3.6997
     3.7085   3.7208   3.7271   3.7431   3.7850   3.7906   3.7937   3.8750
     3.9960   4.0190   4.0294   4.0387   4.0517   4.0537   4.0697   4.1549
     4.1825   4.1896   4.2517   4.2585   4.2898   4.3115   4.3208   4.3250
     4.3414   4.3728   4.3987   4.4059   4.4170   4.4893   4.5070   4.5080
     4.5182   4.5806   4.5840   4.6789   4.7036   4.7310   4.7556   4.7842
     4.7874   4.7932   4.8446   4.8587   4.8886   4.9375   4.9492   4.9542
     4.9846   4.9954   5.0133   5.0684   5.1117   5.1528   5.1644   5.1964
     5.2042   5.2391   5.2962   5.3094   5.3434   5.3669   5.3818   5.4639
     5.4783   5.4808   5.4828   5.5230   5.5622   5.5676   5.5799   5.5845
     5.6073   5.6745   5.7049   5.7347   5.7592   5.7616   5.7687   5.7746
     5.8000   5.8206   5.8318   5.8359   5.8482   5.8953   5.9006   5.9027
     5.9131   5.9540   5.9676   5.9757   5.9824   6.0063   6.0229   6.0298
     6.0395   6.0508   6.0576   6.0672   6.0721   6.0887   6.1098   6.1908
     6.2154   6.2196   6.2371   6.2590   6.2632   6.2671   6.2817   6.3187
     6.3243   6.3265   6.3548   6.3815   6.4030   6.4151   6.4305   6.4668
     6.4771   6.4996   6.5476   6.5552   6.5638   6.5709   6.6584   6.6691
     6.6824   6.7033   6.7108   6.7276   6.7470   6.7773   6.8100   6.8235

          k = 0.2500 0.1443 0.0000 (108355 PWs)   bands (ev):

   -66.9964 -66.9724 -66.9634 -66.9626 -66.9462 -66.9449 -66.9444 -66.9386
   -66.9296 -66.9282 -66.9278 -66.9243 -66.9237 -66.9219 -66.9177 -66.9164
   -66.9129 -66.9119 -66.9087 -66.9050 -66.9023 -66.9018 -66.8985 -66.8952
   -66.7452 -66.7274 -66.7207 -66.7206 -66.7075 -66.7074 -66.7032 -66.6964
   -66.6963 -66.6938 -66.6898 -66.6893 -66.6586 -66.6328 -66.6232 -66.6198
   -66.6074 -66.5919 -66.5855 -66.5816 -66.5772 -66.5760 -66.5734 -66.5650
   -38.8009 -38.7810 -38.7730 -38.7713 -38.6699 -38.6697 -38.6680 -38.6428
   -38.6341 -38.6262 -38.6255 -38.6230 -38.5964 -38.5812 -38.5669 -38.5641
   -38.5370 -38.5347 -38.5254 -38.5164 -38.5121 -38.5102 -38.5042 -38.4825
   -38.4660 -38.4648 -38.4637 -38.4424 -38.3828 -38.3814 -38.3763 -38.3727
   -38.3691 -38.3631 -38.3625 -38.3604 -38.3555 -38.3482 -38.3321 -38.3281
   -38.3271 -38.3181 -38.3130 -38.3116 -38.2882 -38.2815 -38.2698 -38.2671
   -38.2667 -38.2659 -38.2650 -38.2643 -38.2592 -38.2543 -38.2527 -38.2488
   -38.2456 -38.2445 -38.2372 -38.2329 -38.2323 -38.2255 -38.2181 -38.2142
   -38.2110 -38.2093 -38.2074 -38.1965 -38.1933 -38.1917 -38.1901 -38.1612
   -38.1602 -38.1549 -38.1524 -38.1501 -38.1455 -38.1407 -38.1402 -38.1287
   -38.1247 -38.1199 -38.1189 -38.1039 -38.0983 -38.0974 -38.0907 -38.0842
   -38.0803 -38.0725 -38.0689 -38.0577 -38.0536 -38.0499 -38.0474 -38.0401
   -38.0368 -38.0290 -38.0274 -38.0240 -38.0227 -38.0102 -38.0078 -38.0055
   -37.9740 -37.9699 -37.9673 -37.9602 -37.9594 -37.9557 -37.9458 -37.9446
   -37.9416 -37.9399 -37.9388 -37.9251 -37.9223 -37.9192 -37.9155 -37.9115
   -37.9095 -37.9023 -37.9019 -37.8978 -37.8721 -37.8685 -37.8681 -37.8594
   -37.8591 -37.8565 -37.8460 -37.8387 -37.8351 -37.8158 -37.8084 -37.8069
   -37.7116 -37.6953 -37.6914 -37.6804 -37.6711 -37.6686 -37.6618 -37.6551
   -12.4382 -12.0109 -11.9908 -11.8541 -11.8534 -11.7240 -11.6364 -11.6356
   -11.5609 -11.5602 -11.4808 -11.3355 -11.3349 -11.2861 -11.2673 -11.2661
   -11.2549 -11.2016 -11.0375 -11.0159  -8.9890  -8.7129  -8.7126  -8.7014
    -8.6606  -2.9730  -2.9702  -2.9302  -2.8178  -2.7473  -2.7341  -2.7115
    -2.7072  -2.7053  -2.5913  -2.5882  -2.4443  -2.4004  -2.3621  -2.3516
    -2.3482  -2.2905  -2.2372  -2.2113  -2.2066  -2.1594  -1.9701  -1.7943
    -1.7836  -1.7485  -1.6803  -1.6523  -1.6095  -1.5384  -1.5145  -1.4873
    -1.4631  -1.4473  -1.4234  -1.4020  -1.3787  -1.3496  -1.3390  -1.3106
    -1.2913  -1.2769  -1.2483  -1.2398  -1.2225  -1.1227  -1.0775  -1.0599
    -1.0140  -0.9551  -0.9078  -0.8900  -0.8844  -0.8353  -0.8321  -0.8278
    -0.8029  -0.7737  -0.7191  -0.6516  -0.6467  -0.5045  -0.4612  -0.4595
     0.7804   1.1870   1.2183   1.2185   1.4574   1.4576   1.4682   1.4698
     1.5368   1.5534   1.5538   1.5723   1.6345   1.6744   1.6753   1.6876
     1.7891   1.7916   1.8342   2.0745   2.0765   2.1192   2.1691   2.1716
     2.2244   2.2766   2.3102   2.3124   2.3366   2.4361   2.4373   2.4528
     2.4624   2.4647   2.5282   2.5564   2.5602   2.5763   2.6002   2.6290
     2.7318   2.8085   2.8120   2.8748   3.0255   3.0774   3.1415   3.2101
     3.2121   3.2424   3.2479   3.2776   3.3701   3.3768   3.3999   3.4079
     3.4108   3.4488   3.5277   3.5837   3.6140   3.6193   3.6509   3.6987
     3.7093   3.7222   3.7299   3.7436   3.7845   3.7908   3.7936   3.8760
     3.9955   4.0179   4.0281   4.0394   4.0474   4.0542   4.0687   4.1547
     4.1826   4.1930   4.2529   4.2614   4.2902   4.3112   4.3206   4.3258
     4.3386   4.3730   4.3981   4.4040   4.4152   4.4893   4.5039   4.5071
     4.5219   4.5814   4.5830   4.6800   4.7044   4.7332   4.7557   4.7841
     4.7849   4.7970   4.8456   4.8592   4.8881   4.9367   4.9499   4.9542
     4.9840   4.9967   5.0132   5.0701   5.1111   5.1526   5.1613   5.1956
     5.2051   5.2398   5.2948   5.3097   5.3436   5.3670   5.3813   5.4644
     5.4780   5.4812   5.4828   5.5242   5.5625   5.5668   5.5787   5.5845
     5.6070   5.6794   5.6992   5.7331   5.7593   5.7622   5.7691   5.7739
     5.8003   5.8205   5.8320   5.8377   5.8485   5.8935   5.9011   5.9034
     5.9120   5.9538   5.9690   5.9760   5.9817   6.0073   6.0217   6.0294
     6.0398   6.0498   6.0579   6.0681   6.0715   6.0899   6.1086   6.1917
     6.2158   6.2203   6.2371   6.2570   6.2632   6.2664   6.2809   6.3188
     6.3254   6.3268   6.3557   6.3815   6.4024   6.4150   6.4307   6.4661
     6.4770   6.5002   6.5472   6.5552   6.5641   6.5708   6.6581   6.6692
     6.6847   6.7032   6.7096   6.7283   6.7450   6.7758   6.8101   6.8238

          k = 0.5000-0.2887 0.0000 (108310 PWs)   bands (ev):

   -66.9870 -66.9863 -66.9655 -66.9647 -66.9401 -66.9388 -66.9370 -66.9362
   -66.9344 -66.9332 -66.9267 -66.9259 -66.9246 -66.9232 -66.9205 -66.9202
   -66.9091 -66.9082 -66.9075 -66.9051 -66.9029 -66.9019 -66.8999 -66.8959
   -66.7380 -66.7377 -66.7222 -66.7221 -66.7026 -66.7025 -66.6999 -66.6996
   -66.6949 -66.6948 -66.6918 -66.6915 -66.6579 -66.6326 -66.6256 -66.6207
   -66.6062 -66.5906 -66.5831 -66.5806 -66.5789 -66.5777 -66.5728 -66.5656
   -38.7923 -38.7909 -38.7687 -38.7670 -38.6641 -38.6617 -38.6580 -38.6573
   -38.6346 -38.6324 -38.6302 -38.6286 -38.5957 -38.5942 -38.5690 -38.5662
   -38.5334 -38.5304 -38.5220 -38.5217 -38.5187 -38.5148 -38.4978 -38.4952
   -38.4585 -38.4574 -38.4467 -38.4461 -38.3920 -38.3908 -38.3685 -38.3681
   -38.3626 -38.3622 -38.3532 -38.3520 -38.3412 -38.3403 -38.3301 -38.3288
   -38.3241 -38.3229 -38.3158 -38.3146 -38.3028 -38.3018 -38.2724 -38.2695
   -38.2693 -38.2692 -38.2649 -38.2639 -38.2630 -38.2612 -38.2587 -38.2509
   -38.2455 -38.2447 -38.2430 -38.2358 -38.2348 -38.2347 -38.2125 -38.2107
   -38.2006 -38.1927 -38.1915 -38.1850 -38.1828 -38.1817 -38.1812 -38.1789
   -38.1704 -38.1649 -38.1634 -38.1593 -38.1372 -38.1329 -38.1326 -38.1319
   -38.1286 -38.1282 -38.1159 -38.1154 -38.0994 -38.0987 -38.0934 -38.0793
   -38.0774 -38.0698 -38.0623 -38.0581 -38.0541 -38.0494 -38.0449 -38.0420
   -38.0377 -38.0353 -38.0229 -38.0197 -38.0196 -38.0141 -37.9942 -37.9909
   -37.9837 -37.9807 -37.9717 -37.9688 -37.9584 -37.9575 -37.9436 -37.9419
   -37.9404 -37.9365 -37.9329 -37.9307 -37.9177 -37.9153 -37.9136 -37.9117
   -37.9055 -37.9052 -37.9040 -37.9031 -37.8701 -37.8695 -37.8656 -37.8653
   -37.8552 -37.8550 -37.8462 -37.8461 -37.8337 -37.8132 -37.8104 -37.8083
   -37.7065 -37.6910 -37.6906 -37.6801 -37.6747 -37.6723 -37.6622 -37.6580
   -12.2624 -12.2599 -11.8895 -11.8882 -11.8776 -11.8731 -11.6441 -11.6435
   -11.4728 -11.4724 -11.3499 -11.3463 -11.3350 -11.3345 -11.3107 -11.3102
   -11.1320 -11.1253 -11.1088 -11.1083  -8.9890  -8.7145  -8.7142  -8.6798
    -8.6795  -2.9397  -2.9333  -2.8427  -2.8422  -2.7796  -2.7743  -2.7723
    -2.7719  -2.6494  -2.6484  -2.5341  -2.5307  -2.3745  -2.3678  -2.3079
    -2.3017  -2.2567  -2.2501  -2.1356  -2.1235  -2.0437  -2.0385  -1.8577
    -1.8467  -1.7425  -1.7287  -1.7041  -1.6764  -1.6090  -1.5695  -1.5155
    -1.5012  -1.4442  -1.4416  -1.4208  -1.3958  -1.3577  -1.3117  -1.2778
    -1.2602  -1.2598  -1.2410  -1.2335  -1.1315  -1.1229  -1.0534  -1.0469
    -1.0300  -1.0230  -0.9025  -0.9003  -0.8563  -0.8509  -0.8311  -0.8204
    -0.7319  -0.7292  -0.6711  -0.6637  -0.6215  -0.6194  -0.4850  -0.4835
     1.0208   1.0245   1.2065   1.2066   1.4367   1.4391   1.4581   1.4583
     1.5334   1.5336   1.5497   1.5504   1.6910   1.6935   1.7068   1.7071
     1.9272   1.9303   1.9352   1.9371   2.1051   2.1112   2.1468   2.1485
     2.2393   2.2412   2.3725   2.3729   2.3941   2.3959   2.4272   2.4277
     2.4651   2.4659   2.4782   2.4787   2.5840   2.5896   2.7531   2.7601
     2.8101   2.8128   2.8282   2.8368   3.0288   3.0318   3.0483   3.0521
     3.1196   3.1201   3.2126   3.2213   3.3366   3.3413   3.3966   3.4023
     3.4331   3.4361   3.5276   3.5326   3.6244   3.6381   3.6762   3.6857
     3.7390   3.7508   3.8228   3.8307   3.8804   3.8869   3.9151   3.9217
     3.9472   3.9523   3.9843   3.9891   4.0074   4.0254   4.1416   4.1520
     4.1617   4.1641   4.2699   4.2894   4.3236   4.3266   4.3409   4.3602
     4.3710   4.3824   4.3900   4.4056   4.4547   4.4665   4.4812   4.4872
     4.4951   4.5006   4.6121   4.6185   4.6351   4.6592   4.6903   4.6908
     4.7080   4.7178   4.8167   4.8502   4.9852   5.0010   5.0034   5.0071
     5.0099   5.0345   5.0762   5.1056   5.1290   5.1323   5.1451   5.1564
     5.1931   5.1972   5.2759   5.3009   5.3535   5.3556   5.3652   5.3696
     5.4481   5.4515   5.4710   5.5016   5.5319   5.5365   5.5701   5.5767
     5.5906   5.6059   5.6110   5.6490   5.7186   5.7218   5.7545   5.7642
     5.7656   5.7755   5.7907   5.8168   5.8575   5.8711   5.8871   5.8939
     5.9078   5.9104   5.9222   5.9346   5.9776   5.9983   6.0149   6.0170
     6.0504   6.0595   6.0840   6.1282   6.1651   6.1743   6.1805   6.1866
     6.1897   6.2007   6.2086   6.2209   6.2247   6.2668   6.3459   6.3522
     6.3549   6.3900   6.3938   6.4004   6.4358   6.4509   6.4589   6.4712
     6.4756   6.4870   6.5073   6.5319   6.6237   6.6258   6.6344   6.6348
     6.6640   6.6770   6.7191   6.7621   6.8613   6.8643   6.8756   6.8930

          k =-0.5000-0.2887 0.0000 (108310 PWs)   bands (ev):

   -66.9870 -66.9862 -66.9655 -66.9647 -66.9401 -66.9388 -66.9371 -66.9363
   -66.9343 -66.9332 -66.9267 -66.9258 -66.9246 -66.9232 -66.9205 -66.9203
   -66.9091 -66.9082 -66.9075 -66.9049 -66.9029 -66.9020 -66.8999 -66.8959
   -66.7380 -66.7377 -66.7222 -66.7221 -66.7026 -66.7025 -66.6999 -66.6997
   -66.6948 -66.6948 -66.6918 -66.6915 -66.6580 -66.6321 -66.6263 -66.6203
   -66.6063 -66.5908 -66.5837 -66.5806 -66.5781 -66.5762 -66.5744 -66.5655
   -38.7923 -38.7909 -38.7687 -38.7670 -38.6641 -38.6616 -38.6580 -38.6573
   -38.6347 -38.6324 -38.6302 -38.6285 -38.5957 -38.5943 -38.5692 -38.5661
   -38.5333 -38.5303 -38.5220 -38.5218 -38.5188 -38.5148 -38.4978 -38.4951
   -38.4587 -38.4573 -38.4466 -38.4460 -38.3921 -38.3907 -38.3685 -38.3680
   -38.3626 -38.3623 -38.3531 -38.3519 -38.3413 -38.3404 -38.3302 -38.3288
   -38.3241 -38.3230 -38.3160 -38.3145 -38.3029 -38.3017 -38.2723 -38.2695
   -38.2692 -38.2691 -38.2650 -38.2637 -38.2630 -38.2612 -38.2586 -38.2506
   -38.2455 -38.2446 -38.2434 -38.2359 -38.2348 -38.2346 -38.2125 -38.2107
   -38.2005 -38.1929 -38.1912 -38.1849 -38.1827 -38.1816 -38.1814 -38.1789
   -38.1700 -38.1649 -38.1636 -38.1591 -38.1377 -38.1329 -38.1326 -38.1317
   -38.1287 -38.1283 -38.1159 -38.1152 -38.0998 -38.0989 -38.0925 -38.0794
   -38.0774 -38.0706 -38.0611 -38.0581 -38.0546 -38.0498 -38.0453 -38.0429
[...]
     6.4506   6.4528   6.4969   6.4981   6.5388   6.5781   6.5904   6.5936
     6.5952   6.6396   6.6651   6.6703   6.6786   6.7371   6.7907   6.7948

          k = 0.5000-0.0000 0.0000 (108308 PWs)   bands (ev):

   -67.0688 -67.0571 -67.0570 -67.0341 -67.0263 -67.0184 -67.0174 -67.0126
   -67.0125 -67.0099 -67.0098 -67.0070 -67.0069 -67.0038 -67.0027 -66.9938
   -66.9890 -66.9835 -66.9804 -66.9803 -66.9772 -66.9771 -66.9753 -66.9743
   -66.8262 -66.8183 -66.8182 -66.8073 -66.7812 -66.7766 -66.7757 -66.7754
   -66.7710 -66.7706 -66.7696 -66.7683 -66.7212 -66.7142 -66.7119 -66.7038
   -66.6727 -66.6699 -66.6647 -66.6638 -66.6605 -66.6597 -66.6583 -66.6562
   -38.8616 -38.8489 -38.8489 -38.8279 -38.7351 -38.7348 -38.7289 -38.7234
   -38.7119 -38.7085 -38.7074 -38.7073 -38.6737 -38.6607 -38.6606 -38.6236
   -38.6191 -38.6123 -38.6123 -38.6090 -38.5976 -38.5940 -38.5937 -38.5891
   -38.5328 -38.5319 -38.5318 -38.5259 -38.5171 -38.5095 -38.5086 -38.5084
   -38.4953 -38.4355 -38.4324 -38.4309 -38.4306 -38.4182 -38.4180 -38.4064
   -38.4040 -38.4002 -38.3999 -38.3949 -38.3795 -38.3709 -38.3706 -38.3667
   -38.3666 -38.3626 -38.3594 -38.3571 -38.3471 -38.3471 -38.3409 -38.3392
   -38.3313 -38.3304 -38.3248 -38.3148 -38.3141 -38.3102 -38.3101 -38.2812
   -38.2810 -38.2782 -38.2768 -38.2765 -38.2659 -38.2659 -38.2619 -38.2479
   -38.2466 -38.2447 -38.2446 -38.2420 -38.2207 -38.2145 -38.2141 -38.2059
   -38.2045 -38.2027 -38.2027 -38.1959 -38.1915 -38.1704 -38.1702 -38.1681
   -38.1438 -38.1395 -38.1337 -38.1321 -38.1276 -38.1267 -38.1237 -38.1231
   -38.1019 -38.0950 -38.0909 -38.0883 -38.0872 -38.0732 -38.0727 -38.0726
   -38.0560 -38.0409 -38.0391 -38.0373 -38.0260 -38.0257 -38.0184 -38.0177
   -38.0129 -38.0120 -38.0107 -38.0007 -37.9953 -37.9924 -37.9923 -37.9910
   -37.9885 -37.9878 -37.9828 -37.9826 -37.9449 -37.9446 -37.9391 -37.9333
   -37.9314 -37.9225 -37.9224 -37.9148 -37.9005 -37.8964 -37.8950 -37.8948
   -37.7711 -37.7697 -37.7664 -37.7587 -37.7542 -37.7441 -37.7433 -37.7365
   -12.3495 -12.1354 -12.1348 -11.9490 -11.8058 -11.8053 -11.7670 -11.6044
   -11.5236 -11.4646 -11.4437 -11.4428 -11.3811 -11.3713 -11.2569 -11.2561
   -11.1661 -11.1658 -11.1460 -11.0485  -9.3289  -9.2800  -9.2789  -9.2398
    -7.1075  -3.0274  -2.9235  -2.9233  -2.9038  -2.7890  -2.7888  -2.7391
    -2.7112  -2.6529  -2.6501  -2.6191  -2.6178  -2.5702  -2.3954  -2.2536
    -2.2471  -2.2465  -2.1976  -2.1602  -2.1592  -2.1122  -2.1115  -1.9851
    -1.7984  -1.7983  -1.7197  -1.6978  -1.6291  -1.5590  -1.5583  -1.4885
    -1.4405  -1.4345  -1.4087  -1.4079  -1.4029  -1.3923  -1.3288  -1.2125
    -1.2122  -1.1690  -1.1678  -1.1365  -1.0887  -0.9877  -0.9773  -0.9764
    -0.9217  -0.9093  -0.8858  -0.8718  -0.8551  -0.8546  -0.7608  -0.7599
    -0.6890  -0.5836  -0.5672  -0.5669  -0.4255   0.4299   0.4639   0.4781
     0.6755   0.7309   0.7324   0.7697   0.9658   0.9690   1.0134   1.0168
     1.0171   1.0757   1.0819   1.0824   1.2787   1.4176   1.4199   1.6189
     1.7756   1.8837   1.8842   1.9152   1.9856   1.9885   1.9997   2.0005
     2.0870   2.1672   2.1682   2.2361   2.3105   2.3108   2.3448   2.3455
     2.3855   2.4449   2.5015   2.5137   2.5155   2.6049   2.6052   2.6610
     2.7300   2.7315   2.7437   2.7684   2.8436   2.8454   2.8605   2.9481
     3.0903   3.1782   3.2234   3.2257   3.2700   3.2720   3.2921   3.3647
     3.3723   3.3738   3.3831   3.4757   3.4770   3.4903   3.5787   3.6431
     3.6480   3.6786   3.6836   3.7100   3.7144   3.7812   3.7832   3.7959
     3.9635   3.9643   3.9696   3.9941   3.9962   4.0109   4.0131   4.0449
     4.0730   4.1317   4.1464   4.1603   4.1610   4.2262   4.2290   4.2318
     4.2679   4.2709   4.3174   4.3464   4.3660   4.3678   4.3859   4.3905
     4.4825   4.4838   4.5057   4.5160   4.5274   4.5334   4.5440   4.5937
     4.6236   4.7661   4.7849   4.7887   4.8251   4.8305   4.8517   4.8616
     4.8911   4.9599   4.9737   4.9782   5.0584   5.0622   5.1018   5.1188
     5.1216   5.1861   5.2240   5.2520   5.2719   5.2759   5.3066   5.3564
     5.3721   5.3733   5.3777   5.4140   5.4237   5.4477   5.4488   5.5304
     5.5333   5.5405   5.5651   5.6616   5.6656   5.6672   5.6674   5.6802
     5.7119   5.7133   5.7168   5.7316   5.7482   5.7944   5.8015   5.8048
     5.8101   5.8253   5.8402   5.8590   5.8593   5.8954   5.9206   5.9680
     5.9713   5.9904   6.0069   6.0139   6.0363   6.0377   6.0566   6.1242
     6.1248   6.1406   6.1687   6.1694   6.1995   6.2290   6.2347   6.2512
     6.2875   6.2914   6.2984   6.3056   6.3921   6.4027   6.4048   6.4466
     6.4504   6.4513   6.4971   6.4972   6.5388   6.5762   6.5915   6.5952
     6.5956   6.6415   6.6671   6.6682   6.6787   6.7358   6.7911   6.7922

     the Fermi energy is     5.1283 ev

!    total energy              =  -12616.46768999 Ry
     total all-electron energy =   -103594.971497 Ry
     estimated scf accuracy    <          7.8E-11 Ry
     smearing contrib. (-TS)   =       0.00930687 Ry
     internal energy E=F+TS    =  -12616.47699686 Ry

     The total energy is F=E-TS. E is the sum of the following terms:
     one-electron contribution =  -67032.23189932 Ry
     hartree contribution      =   33628.03618626 Ry
     xc contribution           =   -1216.04673949 Ry
     ewald contribution        =   25766.12868746 Ry
     DFT-D3 Dispersion         =      -1.08035065 Ry
     one-center paw contrib.   =   -3761.28288112 Ry

     convergence has been achieved in  47 iterations

     negative rho (up, down):  1.718E-04 0.000E+00

     Forces acting on atoms (cartesian axes, Ry/au):

     atom    1 type  1   force =    -0.00008984    0.00001825   -0.00016131
     atom    2 type  1   force =    -0.00017783    0.00001071   -0.00002227
     atom    3 type  1   force =     0.00009541    0.00004170   -0.00020700
     atom    4 type  1   force =    -0.00004996    0.00023534    0.00014337
     atom    5 type  1   force =     0.00008057   -0.00021910   -0.00012218
     atom    6 type  1   force =    -0.00025378   -0.00005403   -0.00009309
     atom    7 type  2   force =     0.00008508    0.00009296   -0.00043300
     atom    8 type  2   force =     0.00015490   -0.00000293    0.00040692
     atom    9 type  2   force =    -0.00005189   -0.00006062    0.00085038
     atom   10 type  1   force =     0.00015687   -0.00043754    0.00015715
     atom   11 type  1   force =     0.00042770   -0.00015227   -0.00015613
     atom   12 type  1   force =    -0.00011802    0.00034010    0.00053057
     atom   13 type  1   force =     0.00004230    0.00019939    0.00027920
     atom   14 type  1   force =    -0.00004489    0.00053955   -0.00052200
     atom   15 type  1   force =     0.00028741    0.00013695   -0.00060079
     atom   16 type  2   force =    -0.00005107    0.00011140   -0.00054484
     atom   17 type  2   force =    -0.00016955   -0.00013011    0.00008732
     atom   18 type  2   force =    -0.00018539    0.00012444   -0.00003202
     atom   19 type  1   force =    -0.00024128   -0.00021022   -0.00017652
     atom   20 type  1   force =     0.00006117    0.00000332    0.00027761
     atom   21 type  1   force =    -0.00006236   -0.00002679   -0.00017653
     atom   22 type  1   force =     0.00009409    0.00020841   -0.00013071
     atom   23 type  1   force =     0.00031827   -0.00022637   -0.00014141
     atom   24 type  1   force =    -0.00001814   -0.00001722    0.00016382
     atom   25 type  2   force =     0.00052466   -0.00001495   -0.00014308
     atom   26 type  2   force =    -0.00005415    0.00004330    0.00083370
     atom   27 type  2   force =    -0.00002651    0.00000232    0.00068352
     atom   28 type  1   force =     0.00003521    0.00006654    0.00033230
     atom   29 type  1   force =    -0.00021205   -0.00000186    0.00087502
     atom   30 type  1   force =     0.00015500    0.00043223    0.00015457
     atom   31 type  1   force =    -0.00003182   -0.00053439   -0.00047220
     atom   32 type  1   force =    -0.00018232    0.00025979   -0.00046666
     atom   33 type  1   force =     0.00042637    0.00000528   -0.00076626
     atom   34 type  2   force =    -0.00017219    0.00001212   -0.00056770
     atom   35 type  2   force =    -0.00017822   -0.00014778   -0.00000516
     atom   36 type  2   force =    -0.00018050    0.00000339   -0.00026476
     atom   37 type  1   force =    -0.00007670    0.00042068   -0.00036495
     atom   38 type  1   force =    -0.00016336   -0.00003973   -0.00003795
     atom   39 type  1   force =    -0.00025605    0.00018230   -0.00018127
     atom   40 type  1   force =     0.00030866    0.00020567   -0.00014069
     atom   41 type  1   force =     0.00022935   -0.00039208   -0.00022636
     atom   42 type  1   force =    -0.00023930    0.00003796   -0.00009414
     atom   43 type  2   force =     0.00010763   -0.00009888   -0.00043494
     atom   44 type  2   force =    -0.00003263   -0.00001515    0.00069762
     atom   45 type  2   force =    -0.00004838    0.00010495    0.00007953
     atom   46 type  1   force =    -0.00020148    0.00032926    0.00039078
     atom   47 type  1   force =     0.00040930    0.00015089   -0.00014422
     atom   48 type  1   force =     0.00003227   -0.00006863    0.00032139
     atom   49 type  1   force =    -0.00020442   -0.00024371   -0.00046066
     atom   50 type  1   force =     0.00016290    0.00015993   -0.00004526
     atom   51 type  1   force =     0.00029229   -0.00011726   -0.00060523
     atom   52 type  2   force =    -0.00007051   -0.00011883   -0.00052460
     atom   53 type  2   force =    -0.00016013    0.00000755   -0.00026235
     atom   54 type  2   force =     0.00013469    0.00021293    0.00059934
     atom   55 type  1   force =     0.00008083   -0.00002710   -0.00020578
     atom   56 type  1   force =    -0.00035435   -0.00000150   -0.00018036
     atom   57 type  1   force =    -0.00008888   -0.00042588   -0.00035664
     atom   58 type  1   force =     0.00022037    0.00037238   -0.00023025
     atom   59 type  1   force =    -0.00004347   -0.00026920    0.00015892
     atom   60 type  1   force =    -0.00029642   -0.00000334   -0.00044910
     atom   61 type  2   force =    -0.00027926   -0.00000932   -0.00011695
     atom   62 type  2   force =    -0.00004172   -0.00010860    0.00008207
     atom   63 type  2   force =     0.00014776   -0.00001579    0.00041152
     atom   64 type  1   force =    -0.00013533   -0.00029346    0.00051008
     atom   65 type  1   force =     0.00014842    0.00001364    0.00099395
     atom   66 type  1   force =    -0.00019732   -0.00031489    0.00038003
     atom   67 type  1   force =     0.00016353   -0.00013522   -0.00003845
     atom   68 type  1   force =     0.00003804   -0.00017995    0.00025499
     atom   69 type  1   force =     0.00045908   -0.00000168    0.00000078
     atom   70 type  2   force =     0.00019888   -0.00000807    0.00005692
     atom   71 type  2   force =     0.00014222   -0.00021420    0.00056314
     atom   72 type  2   force =    -0.00017330    0.00013533    0.00008819
     atom   73 type  3   force =    -0.00040022    0.00010692    0.00021417
     atom   74 type  4   force =    -0.00017653    0.00004444    0.00029736
     atom   75 type  4   force =    -0.00017248    0.00000826   -0.00030877
     atom   76 type  4   force =     0.00032844   -0.00019519    0.00013363
     atom   77 type  4   force =    -0.00018566    0.00015327   -0.00039532

     Total force =     0.004231     Total SCF correction =     0.000048
     Energy error            =      3.8E-05 Ry
     Gradient error          =      9.9E-04 Ry/Bohr

     bfgs converged in  34 scf cycles and  33 bfgs steps
     (criteria: energy <  1.0E-04 Ry, force <  1.0E-03 Ry/Bohr)

     End of BFGS Geometry Optimization

     Final energy             =  -12616.4676899945 Ry

     File ./Cr2N_CH4_H31_0_o.bfgs deleted, as requested
Begin final coordinates

ATOMIC_POSITIONS (angstrom)
Cr              -1.5844880541        2.7642003753        8.1497372538
Cr               3.2021338736       -0.0020321734        8.1512918735
Cr               0.7860538302        1.3503754463        8.1508075286
Cr               1.6413210839        2.8213048568        6.0196398376
Cr              -0.7372688418        1.2891676816        6.0203047927
Cr               1.5002768519       -0.0021630801        6.0227382025
N                0.0083885974       -0.0047126447        4.9813320060
N                2.3827981770        1.3694502623        7.0087741626
N                0.0093581088        2.7424752649        7.0012791686
Cr              -1.6422044451        2.8540001678       12.4248710197
Cr               3.2986801470        0.0002133497       12.4262711324
Cr               0.7342974836        1.2514931014       12.4192133069
Cr               1.5996739406        2.7621316502       10.3486952132
Cr              -0.7730553917        1.3508385440       10.3490260313
Cr               1.5700636717       -0.0032957045       10.3469772233
N                0.0087931988        0.0007623403        9.2356272163
N                2.3828497899        1.3707530243       11.4649307313
N                0.0088463414        2.7413068524       11.4740220210
Cr              -3.9603920206        6.8805310106        8.1533883730
Cr               0.8250190003        4.1132854201        8.1466039883
Cr              -1.5845270419        5.4623059524        8.1499054539
Cr              -0.7373596791        6.9375479084        6.0205189271
Cr              -3.1156409231        5.4051723300        6.0248002720
Cr              -0.8782296740        4.1134372178        6.0173928225
N               -2.3740114997        4.1135323977        4.9802669512
N                0.0093990222        5.4842273535        7.0014494582
N               -2.3658685119        6.8557191851        7.0074929502
Cr              -4.0141368148        6.9613691262       12.4240080626
Cr               0.9250544370        4.1129072957       12.4329312648
Cr              -1.6425141063        5.3717991664       12.4240496004
Cr              -0.7727314807        6.8753955664       10.3491540265
Cr              -3.1432225981        5.4672299400       10.3443490431
Cr              -0.8038847350        4.1128972921       10.3515745976
N               -2.3612929318        4.1130765636        9.2358704197
N                0.0088400927        5.4847974598       11.4741996947
N               -2.3663538539        6.8573269543       11.4687167762
Cr               3.1614926618        2.7610840498        8.1540424538
Cr               7.9533673704       -0.0008057891        8.1511816658
Cr               5.5424609343        1.3460610596        8.1533613778
Cr               6.3871403642        2.8216983986        6.0246481621
Cr               4.0141721295        1.2921245104        6.0252899314
Cr               6.2515167729       -0.0007610509        6.0226327801
N                4.7594996181        0.0017733847        4.9813705742
N                7.1368708856        1.3709693510        7.0071395553
N                4.7599272877        2.7407384432        7.0155952845
Cr               3.1218879474        2.8435655214       12.4177811973
Cr               8.0509572991       -0.0038287947       12.4263584857
Cr               5.4884559769        1.2646599638       12.4238230238
Cr               6.3598227831        2.7587909353       10.3446982337
Cr               3.9765057327        1.3493040541       10.3443113767
Cr               6.3211964394       -0.0003563715       10.3474676413
N                4.7604001447       -0.0039091695        9.2356115695
N                7.1363744173        1.3686610649       11.4692227958
N                4.7623082767        2.7407909175       11.4563565625
Cr               0.7862390655        6.8761479221        8.1508345805
Cr               5.5791737421        4.1132516079        8.1554277135
Cr               3.1613545460        5.4654591249        8.1540029131
Cr               4.0143100221        6.9346341544        6.0253051467
Cr               1.6412460910        5.4055322740        6.0195363722
Cr               3.8785014337        4.1133488531        6.0285140819
N                2.3912082110        4.1134096310        4.9807174638
N                4.7598485043        5.4858310137        7.0156710042
N                2.3828463648        6.8572691292        7.0086435591
Cr               0.7349108690        6.9733286509       12.4207515419
Cr               5.6751260147        4.1131919379       12.4179716822
Cr               3.1217518099        5.3823967982       12.4171339471
Cr               3.9764292832        6.8768515414       10.3442190956
Cr               1.5995148429        5.4640671026       10.3487590617
Cr               3.9447874109        4.1130134705       10.3413050908
N                2.3795423601        4.1132517967        9.2338052273
N                4.7622825189        5.4854396257       11.4561912619
N                2.3827028118        6.8554945423       11.4651227509
C                0.7867897083        4.1389561567       16.0077838505
H                0.9941752107        4.0336312936       17.0792875884
H                0.8244522238        3.1505467922       15.5320322717
H               -0.2078479854        4.5769013585       15.8618844141
H                1.5438880142        4.7910750896       15.5538580562
End final coordinates



     Writing all to output data dir ./Cr2N_CH4_H31_0_o.save/ :
     XML data file, charge density, pseudopotentials, collected wavefunctions
 
     init_run     :     20.71s CPU     22.40s WALL (       1 calls)
     electrons    :  60308.08s CPU  62315.77s WALL (      34 calls)
     update_pot   :     42.04s CPU     43.94s WALL (      33 calls)
     forces       :    347.15s CPU    368.23s WALL (      34 calls)
     force_dftd3  :      8.96s CPU      9.40s WALL (      34 calls)

     Called by init_run:
     wfcinit      :     12.87s CPU     13.54s WALL (       1 calls)
     potinit      :      1.71s CPU      1.95s WALL (       1 calls)
     hinit0       :      0.43s CPU      0.50s WALL (       1 calls)

     Called by electrons:
     c_bands      :  49385.58s CPU  50729.13s WALL (    1498 calls)
     sum_band     :   8520.56s CPU   8863.94s WALL (    1498 calls)
     v_of_rho     :    867.71s CPU    934.48s WALL (    1528 calls)
     newd         :    786.43s CPU   1013.24s WALL (    1528 calls)
     PAW_pot      :    578.70s CPU    587.51s WALL (    1561 calls)
     mix_rho      :    122.69s CPU    133.36s WALL (    1498 calls)
     energy_dftd3 :      3.91s CPU      3.93s WALL (      34 calls)

     Called by c_bands:
     init_us_2    :    846.10s CPU    858.87s WALL (    9192 calls)
     cegterg      :  46511.93s CPU  47825.46s WALL (    4494 calls)

     Called by *egterg:
     cdiaghg      :   1692.75s CPU   1714.47s WALL (   15874 calls)
     h_psi        :  22822.77s CPU  23337.37s WALL (   15988 calls)
     s_psi        :   5350.55s CPU   5411.86s WALL (   15988 calls)
     g_psi        :    101.50s CPU    102.87s WALL (   11491 calls)

     Called by h_psi:
     h_psi:calbec :   5424.08s CPU   5487.85s WALL (   15988 calls)
     vloc_psi     :  11880.23s CPU  12088.18s WALL (   15988 calls)
                                        0.00s GPU  (   15988 calls)
     add_vuspsi   :   5363.46s CPU   5426.80s WALL (   15988 calls)

     General routines
     calbec       :   8181.47s CPU   8274.76s WALL (   20989 calls)
     fft          :    756.95s CPU    818.05s WALL (   20207 calls)
     ffts         :     10.33s CPU     11.96s WALL (    3026 calls)
     fftw         :  11497.11s CPU  11689.32s WALL (11349078 calls)
     interpolate  :     50.51s CPU     56.38s WALL (    1528 calls)
 
     Parallel routines
 
     PWSCF        :     16h53m CPU     17h27m WALL

 
   This run was terminated on:   4:45:35  14May2026            

=------------------------------------------------------------------------------=
   JOB DONE.
=------------------------------------------------------------------------------=
